50
Energies (in J/mol): KE=   7.067296E-09, PE=  -1.085696E-02, TE=  -1.085696E-02, Step=    10, Time=          0.010 fs
Ar     2.47812976     5.78932113     1.12873248
Ar     3.81025848     2.06733122     3.16028947
Ar     6.20518670     8.54230342     5.32759282
Ar     7.25392748     3.85913999     5.11273716
Ar     9.74367686     9.61555730     7.00222634
Ar     4.62933724     5.94962776     7.73114821
Ar     2.14735684     8.29636972     6.32153769
Ar     5.01912698     6.31310285     8.54428834
Ar     6.21270123     7.01996890     1.84798177
Ar     8.02789510     9.15135825     2.90420871
Ar     4.87146992     6.40498156     1.55265131
Ar     3.51574679     7.98279743     9.05316442
Ar     1.05265102     5.62336632     7.09198848
Ar     9.14741897     2.87809031     8.73523009
Ar     8.15263345     2.27475557     2.49306284
Ar     5.12384699     1.40164762     6.12543677
Ar     6.77140890     9.73287082     8.01962245
Ar     1.89362656     4.58721613     9.26684215
Ar     7.61206229     3.20871658     5.83510684
Ar     6.11876730     8.55105144     4.69962584
Ar     1.36452178     9.26986219     1.86797427
Ar     9.26275493     6.32475879     3.60212216
Ar     3.31565721     9.68275457     8.79507683
Ar     7.04810383     1.17798722     5.41390152
Ar     8.98392035     4.55306093     1.08957578
Ar     2.79958076     1.95947209     4.54856674
Ar     6.50478418     6.32153236     2.11822094
Ar     2.02220950     2.67269025     3.83582589
Ar     9.62059840     5.78338867     7.48955725
Ar     9.03355317     8.50292658     7.04331581
Ar     4.52845727     4.68221142     7.53110547
Ar     3.47844569     5.62296834     8.68476779
Ar     7.76444089     7.11971095     2.82437387
Ar     4.07625880     7.61405816     2.39253647
Ar     1.29613769     5.31020788     3.49772144
Ar     5.22117811     9.52827646     1.14658957
Ar     9.83566282     6.04160207     9.12544087
Ar     2.63662417     9.10006669     4.63517458
Ar     9.85244810     7.65127114     5.28436991
Ar     4.73884595     5.70671199     2.80492376
Ar     7.39356445     3.83156139     6.55680524
Ar     8.91766030     3.08984591     2.90259519
Ar     1.46157542     8.64733796     4.15074755
Ar     5.94434686     7.74853987     1.75452077
Ar     6.52573109     4.92668599     6.49734004
Ar     2.21406702     1.74610067     5.70855442
Ar     3.12738134     9.43631495     3.11794571
Ar     7.56453319     1.51629956     7.10535587
Ar     3.95415277     8.12792693     6.78175890
Ar     8.07615904     7.38873881     4.72250853

50
Energies (in J/mol): KE=   2.826435E-08, PE=  -1.085699E-02, TE=  -1.085696E-02, Step=    20, Time=          0.020 fs
Ar     2.47812976     5.78932113     1.12873248
Ar     3.81025848     2.06733122     3.16028947
Ar     6.20518667     8.54230342     5.32759262
Ar     7.25392748     3.85913998     5.11273717
Ar     9.74367686     9.61555730     7.00222634
Ar     4.62933724     5.94962776     7.73114822
Ar     2.14735684     8.29636972     6.32153769
Ar     5.01912697     6.31310284     8.54428833
Ar     6.21270123     7.01996891     1.84798178
Ar     8.02789510     9.15135825     2.90420871
Ar     4.87146992     6.40498156     1.55265131
Ar     3.51574679     7.98279743     9.05316442
Ar     1.05265102     5.62336632     7.09198848
Ar     9.14741897     2.87809031     8.73523009
Ar     8.15263345     2.27475557     2.49306284
Ar     5.12384699     1.40164762     6.12543677
Ar     6.77140890     9.73287082     8.01962245
Ar     1.89362656     4.58721613     9.26684215
Ar     7.61206228     3.20871659     5.83510684
Ar     6.11876733     8.55105144     4.69962604
Ar     1.36452178     9.26986219     1.86797427
Ar     9.26275493     6.32475879     3.60212216
Ar     3.31565721     9.68275457     8.79507683
Ar     7.04810383     1.17798722     5.41390152
Ar     8.98392035     4.55306093     1.08957578
Ar     2.79958076     1.95947209     4.54856674
Ar     6.50478416     6.32153239     2.11822092
Ar     2.02220950     2.67269025     3.83582589
Ar     9.62059840     5.78338867     7.48955725
Ar     9.03355317     8.50292658     7.04331581
Ar     4.52845727     4.68221142     7.53110547
Ar     3.47844569     5.62296834     8.68476779
Ar     7.76444089     7.11971095     2.82437387
Ar     4.07625880     7.61405816     2.39253647
Ar     1.29613769     5.31020788     3.49772144
Ar     5.22117811     9.52827646     1.14658957
Ar     9.83566282     6.04160207     9.12544087
Ar     2.63662417     9.10006669     4.63517458
Ar     9.85244810     7.65127114     5.28436991
Ar     4.73884595     5.70671199     2.80492376
Ar     7.39356445     3.83156138     6.55680523
Ar     8.91766030     3.08984591     2.90259519
Ar     1.46157542     8.64733796     4.15074755
Ar     5.94434687     7.74853982     1.75452078
Ar     6.52573109     4.92668599     6.49734004
Ar     2.21406702     1.74610067     5.70855442
Ar     3.12738134     9.43631495     3.11794571
Ar     7.56453319     1.51629956     7.10535587
Ar     3.95415277     8.12792693     6.78175890
Ar     8.07615904     7.38873881     4.72250853

50
Energies (in J/mol): KE=   6.359140E-08, PE=  -1.085702E-02, TE=  -1.085696E-02, Step=    30, Time=          0.030 fs
Ar     2.47812976     5.78932113     1.12873248
Ar     3.81025848     2.06733122     3.16028947
Ar     6.20518663     8.54230343     5.32759230
Ar     7.25392749     3.85913998     5.11273718
Ar     9.74367686     9.61555730     7.00222634
Ar     4.62933725     5.94962777     7.73114824
Ar     2.14735684     8.29636972     6.32153769
Ar     5.01912697     6.31310284     8.54428831
Ar     6.21270122     7.01996893     1.84798179
Ar     8.02789510     9.15135825     2.90420871
Ar     4.87146992     6.40498156     1.55265131
Ar     3.51574679     7.98279743     9.05316442
Ar     1.05265102     5.62336632     7.09198848
Ar     9.14741897     2.87809031     8.73523009
Ar     8.15263345     2.27475558     2.49306284
Ar     5.12384699     1.40164762     6.12543677
Ar     6.77140890     9.73287082     8.01962245
Ar     1.89362656     4.58721613     9.26684215
Ar     7.61206228     3.20871661     5.83510685
Ar     6.11876737     8.55105143     4.69962636
Ar     1.36452178     9.26986219     1.86797427
Ar     9.26275493     6.32475879     3.60212216
Ar     3.31565721     9.68275457     8.79507683
Ar     7.04810383     1.17798722     5.41390152
Ar     8.98392035     4.55306093     1.08957578
Ar     2.79958076     1.95947209     4.54856674
Ar     6.50478414     6.32153245     2.11822090
Ar     2.02220950     2.67269025     3.83582589
Ar     9.62059840     5.78338867     7.48955725
Ar     9.03355317     8.50292658     7.04331581
Ar     4.52845727     4.68221142     7.53110547
Ar     3.47844569     5.62296834     8.68476779
Ar     7.76444089     7.11971095     2.82437387
Ar     4.07625880     7.61405816     2.39253647
Ar     1.29613769     5.31020788     3.49772144
Ar     5.22117811     9.52827646     1.14658957
Ar     9.83566282     6.04160207     9.12544087
Ar     2.63662417     9.10006669     4.63517458
Ar     9.85244810     7.65127114     5.28436991
Ar     4.73884595     5.70671199     2.80492376
Ar     7.39356445     3.83156137     6.55680522
Ar     8.91766030     3.08984591     2.90259519
Ar     1.46157542     8.64733796     4.15074755
Ar     5.94434690     7.74853975     1.75452079
Ar     6.52573109     4.92668599     6.49734004
Ar     2.21406702     1.74610067     5.70855442
Ar     3.12738134     9.43631495     3.11794571
Ar     7.56453319     1.51629956     7.10535587
Ar     3.95415277     8.12792693     6.78175890
Ar     8.07615904     7.38873881     4.72250853

50
Energies (in J/mol): KE=   1.130488E-07, PE=  -1.085707E-02, TE=  -1.085696E-02, Step=    40, Time=          0.040 fs
Ar     2.47812976     5.78932113     1.12873248
Ar     3.81025848     2.06733122     3.16028947
Ar     6.20518657     8.54230343     5.32759185
Ar     7.25392749     3.85913997     5.11273719
Ar     9.74367686     9.61555729     7.00222634
Ar     4.62933726     5.94962777     7.73114826
Ar     2.14735684     8.29636972     6.32153769
Ar     5.01912696     6.31310283     8.54428829
Ar     6.21270122     7.01996895     1.84798181
Ar     8.02789510     9.15135825     2.90420871
Ar     4.87146992     6.40498156     1.55265131
Ar     3.51574679     7.98279743     9.05316442
Ar     1.05265102     5.62336632     7.09198848
Ar     9.14741897     2.87809031     8.73523009
Ar     8.15263346     2.27475558     2.49306284
Ar     5.12384699     1.40164762     6.12543677
Ar     6.77140890     9.73287082     8.01962245
Ar     1.89362656     4.58721613     9.26684215
Ar     7.61206227     3.20871663     5.83510685
Ar     6.11876743     8.55105143     4.69962681
Ar     1.36452178     9.26986219     1.86797427
Ar     9.26275493     6.32475879     3.60212216
Ar     3.31565721     9.68275457     8.79507683
Ar     7.04810383     1.17798722     5.41390152
Ar     8.98392035     4.55306093     1.08957578
Ar     2.79958075     1.95947209     4.54856674
Ar     6.50478411     6.32153253     2.11822087
Ar     2.02220951     2.67269025     3.83582589
Ar     9.62059840     5.78338867     7.48955725
Ar     9.03355317     8.50292659     7.04331581
Ar     4.52845727     4.68221143     7.53110547
Ar     3.47844569     5.62296834     8.68476779
Ar     7.76444089     7.11971095     2.82437387
Ar     4.07625880     7.61405816     2.39253647
Ar     1.29613769     5.31020788     3.49772144
Ar     5.22117811     9.52827646     1.14658957
Ar     9.83566282     6.04160207     9.12544087
Ar     2.63662417     9.10006669     4.63517458
Ar     9.85244810     7.65127114     5.28436991
Ar     4.73884595     5.70671199     2.80492376
Ar     7.39356446     3.83156136     6.55680520
Ar     8.91766029     3.08984590     2.90259519
Ar     1.46157542     8.64733796     4.15074755
Ar     5.94434693     7.74853965     1.75452080
Ar     6.52573109     4.92668599     6.49734004
Ar     2.21406702     1.74610067     5.70855441
Ar     3.12738134     9.43631495     3.11794571
Ar     7.56453319     1.51629956     7.10535587
Ar     3.95415277     8.12792693     6.78175890
Ar     8.07615904     7.38873881     4.72250853

50
Energies (in J/mol): KE=   1.766371E-07, PE=  -1.085713E-02, TE=  -1.085696E-02, Step=    50, Time=          0.050 fs
Ar     2.47812976     5.78932113     1.12873248
Ar     3.81025848     2.06733122     3.16028947
Ar     6.20518649     8.54230344     5.32759128
Ar     7.25392750     3.85913996     5.11273720
Ar     9.74367685     9.61555729     7.00222634
Ar     4.62933727     5.94962778     7.73114828
Ar     2.14735684     8.29636972     6.32153769
Ar     5.01912694     6.31310282     8.54428827
Ar     6.21270121     7.01996898     1.84798183
Ar     8.02789510     9.15135825     2.90420871
Ar     4.87146992     6.40498156     1.55265132
Ar     3.51574679     7.98279743     9.05316442
Ar     1.05265102     5.62336632     7.09198848
Ar     9.14741897     2.87809031     8.73523009
Ar     8.15263346     2.27475558     2.49306285
Ar     5.12384699     1.40164762     6.12543677
Ar     6.77140890     9.73287082     8.01962245
Ar     1.89362656     4.58721613     9.26684215
Ar     7.61206225     3.20871667     5.83510686
Ar     6.11876751     8.55105142     4.69962738
Ar     1.36452178     9.26986219     1.86797427
Ar     9.26275493     6.32475879     3.60212216
Ar     3.31565721     9.68275457     8.79507683
Ar     7.04810383     1.17798722     5.41390152
Ar     8.98392035     4.55306093     1.08957578
Ar     2.79958075     1.95947210     4.54856674
Ar     6.50478406     6.32153263     2.11822083
Ar     2.02220951     2.67269024     3.83582590
Ar     9.62059840     5.78338867     7.48955725
Ar     9.03355318     8.50292659     7.04331581
Ar     4.52845727     4.68221143     7.53110547
Ar     3.47844569     5.62296834     8.68476779
Ar     7.76444089     7.11971095     2.82437387
Ar     4.07625880     7.61405816     2.39253647
Ar     1.29613769     5.31020788     3.49772144
Ar     5.22117811     9.52827646     1.14658957
Ar     9.83566282     6.04160207     9.12544087
Ar     2.63662416     9.10006669     4.63517458
Ar     9.85244810     7.65127114     5.28436991
Ar     4.73884595     5.70671199     2.80492375
Ar     7.39356446     3.83156134     6.55680517
Ar     8.91766029     3.08984590     2.90259518
Ar     1.46157543     8.64733796     4.15074755
Ar     5.94434698     7.74853952     1.75452082
Ar     6.52573109     4.92668598     6.49734004
Ar     2.21406702     1.74610067     5.70855441
Ar     3.12738134     9.43631495     3.11794571
Ar     7.56453319     1.51629956     7.10535587
Ar     3.95415277     8.12792693     6.78175890
Ar     8.07615904     7.38873881     4.72250853

50
Energies (in J/mol): KE=   2.543570E-07, PE=  -1.085721E-02, TE=  -1.085696E-02, Step=    60, Time=          0.060 fs
Ar     2.47812976     5.78932113     1.12873248
Ar     3.81025848     2.06733122     3.16028947
Ar     6.20518639     8.54230345     5.32759057
Ar     7.25392751     3.85913994     5.11273722
Ar     9.74367685     9.61555729     7.00222634
Ar     4.62933728     5.94962779     7.73114831
Ar     2.14735684     8.29636972     6.32153769
Ar     5.01912693     6.31310280     8.54428824
Ar     6.21270120     7.01996902     1.84798186
Ar     8.02789510     9.15135825     2.90420871
Ar     4.87146993     6.40498156     1.55265132
Ar     3.51574679     7.98279743     9.05316442
Ar     1.05265102     5.62336632     7.09198848
Ar     9.14741897     2.87809031     8.73523009
Ar     8.15263347     2.27475559     2.49306285
Ar     5.12384699     1.40164762     6.12543677
Ar     6.77140890     9.73287082     8.01962245
Ar     1.89362656     4.58721613     9.26684215
Ar     7.61206224     3.20871670     5.83510687
Ar     6.11876761     8.55105141     4.69962809
Ar     1.36452178     9.26986219     1.86797427
Ar     9.26275493     6.32475879     3.60212216
Ar     3.31565721     9.68275457     8.79507683
Ar     7.04810383     1.17798722     5.41390152
Ar     8.98392035     4.55306093     1.08957578
Ar     2.79958074     1.95947210     4.54856674
Ar     6.50478401     6.32153275     2.11822079
Ar     2.02220951     2.67269024     3.83582590
Ar     9.62059840     5.78338867     7.48955725
Ar     9.03355318     8.50292659     7.04331581
Ar     4.52845727     4.68221144     7.53110547
Ar     3.47844570     5.62296834     8.68476779
Ar     7.76444089     7.11971095     2.82437387
Ar     4.07625880     7.61405816     2.39253647
Ar     1.29613769     5.31020788     3.49772144
Ar     5.22117811     9.52827646     1.14658957
Ar     9.83566282     6.04160207     9.12544087
Ar     2.63662416     9.10006669     4.63517457
Ar     9.85244810     7.65127114     5.28436991
Ar     4.73884595     5.70671200     2.80492375
Ar     7.39356447     3.83156132     6.55680515
Ar     8.91766028     3.08984589     2.90259518
Ar     1.46157543     8.64733796     4.15074755
Ar     5.94434704     7.74853936     1.75452084
Ar     6.52573110     4.92668598     6.49734004
Ar     2.21406703     1.74610067     5.70855441
Ar     3.12738134     9.43631495     3.11794571
Ar     7.56453319     1.51629956     7.10535587
Ar     3.95415277     8.12792693     6.78175890
Ar     8.07615904     7.38873881     4.72250853

50
Energies (in J/mol): KE=   3.462092E-07, PE=  -1.085730E-02, TE=  -1.085696E-02, Step=    70, Time=          0.070 fs
Ar     2.47812976     5.78932113     1.12873248
Ar     3.81025848     2.06733122     3.16028947
Ar     6.20518628     8.54230346     5.32758974
Ar     7.25392752     3.85913992     5.11273725
Ar     9.74367685     9.61555728     7.00222634
Ar     4.62933730     5.94962780     7.73114835
Ar     2.14735684     8.29636972     6.32153769
Ar     5.01912691     6.31310279     8.54428820
Ar     6.21270119     7.01996906     1.84798189
Ar     8.02789510     9.15135825     2.90420871
Ar     4.87146993     6.40498156     1.55265132
Ar     3.51574679     7.98279743     9.05316442
Ar     1.05265102     5.62336632     7.09198848
Ar     9.14741897     2.87809031     8.73523009
Ar     8.15263348     2.27475560     2.49306285
Ar     5.12384699     1.40164762     6.12543677
Ar     6.77140890     9.73287082     8.01962245
Ar     1.89362656     4.58721613     9.26684215
Ar     7.61206222     3.20871675     5.83510688
Ar     6.11876772     8.55105140     4.69962892
Ar     1.36452178     9.26986219     1.86797427
Ar     9.26275493     6.32475879     3.60212216
Ar     3.31565721     9.68275457     8.79507683
Ar     7.04810383     1.17798722     5.41390152
Ar     8.98392035     4.55306093     1.08957578
Ar     2.79958074     1.95947210     4.54856674
Ar     6.50478395     6.32153290     2.11822073
Ar     2.02220952     2.67269024     3.83582590
Ar     9.62059840     5.78338867     7.48955725
Ar     9.03355318     8.50292660     7.04331581
Ar     4.52845727     4.68221145     7.53110548
Ar     3.47844570     5.62296834     8.68476778
Ar     7.76444089     7.11971095     2.82437387
Ar     4.07625880     7.61405816     2.39253647
Ar     1.29613769     5.31020788     3.49772144
Ar     5.22117811     9.52827646     1.14658957
Ar     9.83566282     6.04160207     9.12544087
Ar     2.63662416     9.10006668     4.63517457
Ar     9.85244810     7.65127114     5.28436991
Ar     4.73884595     5.70671200     2.80492375
Ar     7.39356448     3.83156130     6.55680511
Ar     8.91766027     3.08984588     2.90259518
Ar     1.46157544     8.64733797     4.15074756
Ar     5.94434711     7.74853917     1.75452086
Ar     6.52573110     4.92668598     6.49734004
Ar     2.21406703     1.74610067     5.70855440
Ar     3.12738134     9.43631495     3.11794571
Ar     7.56453319     1.51629956     7.10535587
Ar     3.95415277     8.12792693     6.78175890
Ar     8.07615904     7.38873881     4.72250853

50
Energies (in J/mol): KE=   4.521948E-07, PE=  -1.085741E-02, TE=  -1.085696E-02, Step=    80, Time=          0.080 fs
Ar     2.47812976     5.78932113     1.12873248
Ar     3.81025848     2.06733122     3.16028947
Ar     6.20518615     8.54230348     5.32758878
Ar     7.25392753     3.85913990     5.11273727
Ar     9.74367685     9.61555728     7.00222634
Ar     4.62933732     5.94962781     7.73114839
Ar     2.14735684     8.29636972     6.32153769
Ar     5.01912689     6.31310277     8.54428816
Ar     6.21270118     7.01996911     1.84798193
Ar     8.02789510     9.15135825     2.90420871
Ar     4.87146993     6.40498156     1.55265133
Ar     3.51574679     7.98279743     9.05316442
Ar     1.05265102     5.62336632     7.09198848
Ar     9.14741897     2.87809031     8.73523009
Ar     8.15263348     2.27475561     2.49306286
Ar     5.12384699     1.40164762     6.12543677
Ar     6.77140890     9.73287082     8.01962245
Ar     1.89362656     4.58721613     9.26684215
Ar     7.61206219     3.20871680     5.83510690
Ar     6.11876786     8.55105138     4.69962988
Ar     1.36452178     9.26986219     1.86797427
Ar     9.26275493     6.32475879     3.60212216
Ar     3.31565721     9.68275457     8.79507683
Ar     7.04810383     1.17798722     5.41390152
Ar     8.98392035     4.55306093     1.08957578
Ar     2.79958073     1.95947210     4.54856674
Ar     6.50478388     6.32153306     2.11822067
Ar     2.02220952     2.67269023     3.83582591
Ar     9.62059840     5.78338867     7.48955726
Ar     9.03355318     8.50292660     7.04331581
Ar     4.52845727     4.68221145     7.53110548
Ar     3.47844570     5.62296834     8.68476778
Ar     7.76444089     7.11971095     2.82437387
Ar     4.07625880     7.61405816     2.39253647
Ar     1.29613769     5.31020788     3.49772144
Ar     5.22117811     9.52827646     1.14658957
Ar     9.83566282     6.04160207     9.12544087
Ar     2.63662415     9.10006668     4.63517457
Ar     9.85244810     7.65127114     5.28436991
Ar     4.73884595     5.70671200     2.80492375
Ar     7.39356448     3.83156127     6.55680507
Ar     8.91766027     3.08984587     2.90259517
Ar     1.46157544     8.64733797     4.15074756
Ar     5.94434719     7.74853896     1.75452089
Ar     6.52573110     4.92668597     6.49734004
Ar     2.21406703     1.74610067     5.70855440
Ar     3.12738134     9.43631495     3.11794572
Ar     7.56453319     1.51629956     7.10535587
Ar     3.95415277     8.12792693     6.78175890
Ar     8.07615904     7.38873881     4.72250853

50
Energies (in J/mol): KE=   5.723148E-07, PE=  -1.085753E-02, TE=  -1.085696E-02, Step=    90, Time=          0.090 fs
Ar     2.47812976     5.78932113     1.12873248
Ar     3.81025848     2.06733122     3.16028947
Ar     6.20518600     8.54230349     5.32758769
Ar     7.25392754     3.85913988     5.11273730
Ar     9.74367684     9.61555727     7.00222634
Ar     4.62933734     5.94962782     7.73114844
Ar     2.14735684     8.29636972     6.32153769
Ar     5.01912686     6.31310274     8.54428811
Ar     6.21270117     7.01996916     1.84798197
Ar     8.02789510     9.15135825     2.90420871
Ar     4.87146993     6.40498157     1.55265133
Ar     3.51574679     7.98279743     9.05316442
Ar     1.05265102     5.62336632     7.09198848
Ar     9.14741897     2.87809031     8.73523009
Ar     8.15263349     2.27475562     2.49306286
Ar     5.12384699     1.40164762     6.12543677
Ar     6.77140890     9.73287082     8.01962245
Ar     1.89362656     4.58721613     9.26684215
Ar     7.61206217     3.20871686     5.83510691
Ar     6.11876801     8.55105137     4.69963097
Ar     1.36452178     9.26986219     1.86797427
Ar     9.26275493     6.32475879     3.60212216
Ar     3.31565721     9.68275457     8.79507683
Ar     7.04810383     1.17798722     5.41390152
Ar     8.98392035     4.55306093     1.08957578
Ar     2.79958072     1.95947211     4.54856674
Ar     6.50478380     6.32153325     2.11822059
Ar     2.02220953     2.67269023     3.83582591
Ar     9.62059840     5.78338867     7.48955726
Ar     9.03355319     8.50292661     7.04331581
Ar     4.52845727     4.68221146     7.53110548
Ar     3.47844570     5.62296834     8.68476778
Ar     7.76444088     7.11971095     2.82437387
Ar     4.07625881     7.61405816     2.39253647
Ar     1.29613769     5.31020788     3.49772144
Ar     5.22117811     9.52827646     1.14658957
Ar     9.83566282     6.04160207     9.12544086
Ar     2.63662415     9.10006668     4.63517457
Ar     9.85244810     7.65127114     5.28436991
Ar     4.73884595     5.70671200     2.80492374
Ar     7.39356449     3.83156124     6.55680503
Ar     8.91766026     3.08984587     2.90259517
Ar     1.46157545     8.64733797     4.15074756
Ar     5.94434728     7.74853871     1.75452092
Ar     6.52573110     4.92668597     6.49734004
Ar     2.21406704     1.74610068     5.70855439
Ar     3.12738134     9.43631495     3.11794572
Ar     7.56453319     1.51629956     7.10535587
Ar     3.95415277     8.12792693     6.78175890
Ar     8.07615904     7.38873881     4.72250853

50
Energies (in J/mol): KE=   7.065704E-07, PE=  -1.085766E-02, TE=  -1.085696E-02, Step=   100, Time=          0.100 fs
Ar     2.47812976     5.78932113     1.12873248
Ar     3.81025847     2.06733122     3.16028948
Ar     6.20518583     8.54230351     5.32758647
Ar     7.25392756     3.85913985     5.11273733
Ar     9.74367684     9.61555727     7.00222634
Ar     4.62933736     5.94962784     7.73114849
Ar     2.14735684     8.29636972     6.32153769
Ar     5.01912684     6.31310272     8.54428806
Ar     6.21270115     7.01996922     1.84798201
Ar     8.02789510     9.15135825     2.90420871
Ar     4.87146994     6.40498157     1.55265134
Ar     3.51574679     7.98279743     9.05316442
Ar     1.05265102     5.62336632     7.09198848
Ar     9.14741897     2.87809031     8.73523009
Ar     8.15263350     2.27475563     2.49306287
Ar     5.12384699     1.40164762     6.12543677
Ar     6.77140890     9.73287082     8.01962245
Ar     1.89362656     4.58721613     9.26684215
Ar     7.61206214     3.20871692     5.83510693
Ar     6.11876817     8.55105135     4.69963219
Ar     1.36452178     9.26986219     1.86797427
Ar     9.26275493     6.32475879     3.60212216
Ar     3.31565721     9.68275456     8.79507683
Ar     7.04810383     1.17798722     5.41390153
Ar     8.98392035     4.55306093     1.08957578
Ar     2.79958071     1.95947211     4.54856674
Ar     6.50478371     6.32153347     2.11822051
Ar     2.02220953     2.67269022     3.83582592
Ar     9.62059840     5.78338867     7.48955726
Ar     9.03355319     8.50292661     7.04331581
Ar     4.52845727     4.68221147     7.53110548
Ar     3.47844571     5.62296834     8.68476778
Ar     7.76444088     7.11971095     2.82437387
Ar     4.07625881     7.61405815     2.39253647
Ar     1.29613769     5.31020788     3.49772144
Ar     5.22117811     9.52827646     1.14658957
Ar     9.83566282     6.04160207     9.12544086
Ar     2.63662414     9.10006668     4.63517456
Ar     9.85244810     7.65127114     5.28436991
Ar     4.73884595     5.70671200     2.80492374
Ar     7.39356450     3.83156120     6.55680498
Ar     8.91766025     3.08984585     2.90259516
Ar     1.46157545     8.64733797     4.15074756
Ar     5.94434738     7.74853843     1.75452096
Ar     6.52573111     4.92668597     6.49734004
Ar     2.21406704     1.74610068     5.70855438
Ar     3.12738134     9.43631495     3.11794572
Ar     7.56453319     1.51629956     7.10535586
Ar     3.95415277     8.12792693     6.78175890
Ar     8.07615904     7.38873881     4.72250853

50
Energies (in J/mol): KE=   8.549632E-07, PE=  -1.085781E-02, TE=  -1.085696E-02, Step=   110, Time=          0.110 fs
Ar     2.47812976     5.78932113     1.12873248
Ar     3.81025847     2.06733122     3.16028948
Ar     6.20518564     8.54230353     5.32758513
Ar     7.25392757     3.85913983     5.11273737
Ar     9.74367683     9.61555726     7.00222634
Ar     4.62933739     5.94962785     7.73114855
Ar     2.14735684     8.29636972     6.32153769
Ar     5.01912681     6.31310269     8.54428800
Ar     6.21270114     7.01996929     1.84798206
Ar     8.02789510     9.15135825     2.90420871
Ar     4.87146994     6.40498157     1.55265134
Ar     3.51574679     7.98279744     9.05316442
Ar     1.05265102     5.62336632     7.09198848
Ar     9.14741897     2.87809031     8.73523009
Ar     8.15263351     2.27475564     2.49306287
Ar     5.12384699     1.40164762     6.12543677
Ar     6.77140890     9.73287082     8.01962245
Ar     1.89362656     4.58721613     9.26684215
Ar     7.61206211     3.20871699     5.83510695
Ar     6.11876836     8.55105133     4.69963353
Ar     1.36452178     9.26986219     1.86797427
Ar     9.26275492     6.32475879     3.60212216
Ar     3.31565721     9.68275456     8.79507683
Ar     7.04810383     1.17798722     5.41390153
Ar     8.98392035     4.55306093     1.08957578
Ar     2.79958071     1.95947212     4.54856674
Ar     6.50478362     6.32153370     2.11822042
Ar     2.02220954     2.67269021     3.83582593
Ar     9.62059840     5.78338867     7.48955726
Ar     9.03355320     8.50292662     7.04331581
Ar     4.52845727     4.68221148     7.53110548
Ar     3.47844571     5.62296834     8.68476778
Ar     7.76444088     7.11971095     2.82437387
Ar     4.07625881     7.61405815     2.39253647
Ar     1.29613769     5.31020788     3.49772144
Ar     5.22117811     9.52827646     1.14658957
Ar     9.83566282     6.04160207     9.12544086
Ar     2.63662414     9.10006668     4.63517456
Ar     9.85244809     7.65127114     5.28436991
Ar     4.73884596     5.70671201     2.80492373
Ar     7.39356451     3.83156117     6.55680492
Ar     8.91766024     3.08984584     2.90259516
Ar     1.46157546     8.64733797     4.15074756
Ar     5.94434749     7.74853813     1.75452100
Ar     6.52573111     4.92668596     6.49734004
Ar     2.21406704     1.74610068     5.70855438
Ar     3.12738133     9.43631495     3.11794572
Ar     7.56453319     1.51629956     7.10535586
Ar     3.95415277     8.12792693     6.78175890
Ar     8.07615904     7.38873881     4.72250853

50
Energies (in J/mol): KE=   1.017495E-06, PE=  -1.085797E-02, TE=  -1.085696E-02, Step=   120, Time=          0.120 fs
Ar     2.47812976     5.78932113     1.12873248
Ar     3.81025847     2.06733122     3.16028948
Ar     6.20518544     8.54230355     5.32758365
Ar     7.25392759     3.85913980     5.11273741
Ar     9.74367683     9.61555725     7.00222634
Ar     4.62933741     5.94962787     7.73114862
Ar     2.14735685     8.29636972     6.32153769
Ar     5.01912677     6.31310266     8.54428793
Ar     6.21270112     7.01996936     1.84798212
Ar     8.02789510     9.15135825     2.90420871
Ar     4.87146995     6.40498157     1.55265135
Ar     3.51574679     7.98279744     9.05316442
Ar     1.05265102     5.62336632     7.09198848
Ar     9.14741897     2.87809031     8.73523009
Ar     8.15263353     2.27475565     2.49306288
Ar     5.12384699     1.40164762     6.12543677
Ar     6.77140890     9.73287082     8.01962245
Ar     1.89362656     4.58721613     9.26684215
Ar     7.61206208     3.20871707     5.83510697
Ar     6.11876856     8.55105131     4.69963501
Ar     1.36452178     9.26986219     1.86797427
Ar     9.26275492     6.32475879     3.60212216
Ar     3.31565721     9.68275456     8.79507683
Ar     7.04810383     1.17798722     5.41390153
Ar     8.98392035     4.55306093     1.08957578
Ar     2.79958069     1.95947212     4.54856674
Ar     6.50478351     6.32153396     2.11822033
Ar     2.02220955     2.67269021     3.83582593
Ar     9.62059840     5.78338867     7.48955726
Ar     9.03355320     8.50292663     7.04331581
Ar     4.52845727     4.68221149     7.53110549
Ar     3.47844572     5.62296834     8.68476777
Ar     7.76444088     7.11971095     2.82437387
Ar     4.07625881     7.61405815     2.39253646
Ar     1.29613769     5.31020788     3.49772144
Ar     5.22117811     9.52827646     1.14658957
Ar     9.83566282     6.04160207     9.12544086
Ar     2.63662413     9.10006667     4.63517455
Ar     9.85244809     7.65127114     5.28436991
Ar     4.73884596     5.70671201     2.80492373
Ar     7.39356453     3.83156112     6.55680486
Ar     8.91766022     3.08984583     2.90259515
Ar     1.46157546     8.64733798     4.15074757
Ar     5.94434761     7.74853780     1.75452104