50
Energies (in J/mol): KE=   2.536596E+12, PE=  -1.462430E-13, TE=   2.536596E+12, Step=    10, Time=          0.010 fs
Ar  -438.17711942   249.12437926  -323.16383985
Ar    36.95232601    71.69315987  -438.06859678
Ar  -355.48789998  -152.66880651   382.27944058
Ar   199.42832115  -289.90542188  -221.91883763
Ar  -393.57213012  -367.17815219  -238.20326177
Ar  -432.99228688   112.64807735   -57.13130123
Ar  -316.39791383  -280.47906594   266.73617249
Ar  -478.50716911   159.03739810   223.98812291
Ar   378.09879233   144.33653884   -96.00602455
Ar   143.57913250  -123.29117450   406.39702483
Ar  -404.07579525  -384.07179735    57.72956698
Ar   133.59730647   238.17615986   474.66993820
Ar   288.18678869  -214.97710902  -252.96452816
Ar   -94.71824578   -74.79820875  -490.04799876
Ar  -108.62097572    84.25430653   480.09681151
Ar   430.16406165    92.53363380   218.86613131
Ar   138.87360008    79.75105019   175.02054540
Ar  -450.97889270   477.67819510  -154.24809287
Ar   377.63374117  -376.63703670   116.01813514
Ar   311.56952204   491.28068197  -197.35505308
Ar  -325.15629674     8.76170386   -11.63666402
Ar   236.84207002   -49.57693004   377.13392922
Ar  -461.24478004   338.26040426  -206.17458762
Ar   313.31635172  -102.60973640  -172.13359474
Ar   -10.02964043   113.95177089  -226.82039550
Ar   -68.19518866   153.97073063  -444.14658483
Ar  -435.78848952  -465.18632328   333.74493017
Ar  -436.76855830   -62.48470771  -268.60801093
Ar   263.88131941   197.80107138  -156.25680118
Ar   239.89798261   251.66252631   -41.19909482
Ar  -433.73304284    24.35883230   137.65309208
Ar   214.50527015   241.31963151  -292.36498990
Ar   360.26603577  -324.64209523  -112.62464972
Ar   308.03707014    19.81097873   225.76953909
Ar   194.86776882   171.46606506    74.22207570
Ar  -393.33476135  -302.50777679  -388.02041498
Ar  -384.68263949   177.64125630   -71.99342202
Ar  -398.32957472  -218.22242072  -361.25763621
Ar  -349.25551925     4.84971722    17.60161032
Ar  -336.62526334   158.95222102   -63.86501844
Ar   246.40386149    64.15078228   226.49559300
Ar  -106.09537500   329.56498196  -434.56684526
Ar  -479.75041188  -459.10460669   497.82779245
Ar  -236.08736259   262.03994358  -458.97935866
Ar   379.33050697   366.12444619   -86.04555914
Ar   366.98766811   450.49192528   457.82503565
Ar  -165.99798003   -30.36623813    72.74680553
Ar     1.75808439  -444.52819994   193.92278445
Ar  -367.56046625   210.86078952  -288.43453740
Ar  -417.35327137  -366.86925043   327.92802966

50
Energies (in J/mol): KE=   2.536596E+12, PE=  -1.803200E-15, TE=   2.536596E+12, Step=    20, Time=          0.020 fs
Ar  -878.83236860   492.45943740  -647.45641217
Ar    70.09439353   141.31898853  -879.29748304
Ar  -717.18098666  -313.87991644   759.23128828
Ar   391.60271483  -583.66998374  -448.95041241
Ar  -796.88793710  -743.97186169  -483.40874988
Ar  -870.61391101   219.34652695  -121.99375068
Ar  -634.94318450  -569.25450159   527.15080728
Ar  -962.03346519   311.76169336   439.43195748
Ar   749.98488344   281.65310878  -193.86003088
Ar   279.13036989  -255.73370724   809.88984096
Ar  -813.02306042  -774.54857627   113.90648265
Ar   263.67886614   468.36952230   940.28671198
Ar   575.32092637  -435.57758435  -513.02104480
Ar  -198.58391053  -152.47450780  -988.83122762
Ar  -225.39458488   166.23385749   957.70056018
Ar   855.20427631   183.66561997   431.60682586
Ar   270.97579125   149.76922955   342.02146835
Ar  -903.85141197   950.76917407  -317.76302788
Ar   747.65542005  -756.48278997   226.20116344
Ar   617.02027679   974.01031251  -399.40973194
Ar  -651.67711526     8.25354552   -25.14130232
Ar   464.42138511  -105.47861888   750.66573629
Ar  -925.80521729   666.83805395  -421.14425206
Ar   619.58459961  -206.39746003  -349.68109099
Ar   -29.04320120   223.35048085  -454.73036679
Ar  -139.18995808   305.98198916  -892.84173640
Ar  -878.08176321  -936.69417891   665.37163939
Ar  -875.55932609  -127.64210567  -541.05184776
Ar   518.14204041   389.81875410  -320.00315961
Ar   470.76241205   494.82212604   -89.44150545
Ar  -871.99454295    44.03545318   267.77507870
Ar   425.53209461   477.01629469  -593.41474760
Ar   712.76763065  -656.40390141  -228.07367332
Ar   611.99788147    32.00789929   449.14654171
Ar   388.43939996   337.62192223   144.94642995
Ar  -791.89070080  -614.54383003  -777.18741953
Ar  -779.20094181   349.24091053  -153.11228490
Ar  -799.29577360  -445.54490814  -727.15044701
Ar  -708.36348659     2.04816330    29.91885073
Ar  -677.98937264   312.19773005  -130.53496064
Ar   485.41415853   124.47000318   446.43438076
Ar  -221.10841031   656.04011801  -872.03628572
Ar  -960.96239919  -926.85655135   991.50483735
Ar  -478.11907203   516.33134728  -919.71323809
Ar   752.13528285   727.32220638  -178.58845831
Ar   731.76126920   899.23774990   909.94151689
Ar  -335.12334139   -70.16879122   142.37566536
Ar    -4.04836441  -890.57269944   380.74021302
Ar  -739.07508527   413.59365211  -583.65083370
Ar  -842.78270178  -741.12723966   651.13355079

50
Energies (in J/mol): KE=   2.536596E+12, PE=  -1.447662E-16, TE=   2.536596E+12, Step=    30, Time=          0.030 fs
Ar -1319.48761778   735.79449553  -971.74898450
Ar   103.23646106   210.94481718 -1320.52636929
Ar -1078.87407335  -475.09102637  1136.18313598
Ar   583.77710850  -877.43454561  -675.98198720
Ar -1200.20374407 -1120.76557118  -728.61423799
Ar -1308.23553513   326.04497654  -186.85620012
Ar  -953.48845517  -858.02993725   787.56544208
Ar -1445.55976128   464.48598861   654.87579205
Ar  1121.87097454   418.96967873  -291.71403720
Ar   414.68160729  -388.17623999  1213.38265708
Ar -1221.97032560 -1165.02535518   170.08339831
Ar   393.76042582   698.56288473  1405.90348576
Ar   862.45506404  -656.17805969  -773.07756144
Ar  -302.44957528  -230.15080686 -1487.61445647
Ar  -342.16819405   248.21340845  1435.30430885
Ar  1280.24449098   274.79760615   644.34752040
Ar   403.07798243   219.78740892   509.02239130
Ar -1356.72393123  1423.86015304  -481.27796290
Ar  1117.67709894 -1136.32854325   336.38419174
Ar   922.47103153  1456.73994304  -601.46441079
Ar  -978.19793378     7.74538719   -38.64594061
Ar   692.00070020  -161.38030771  1124.19754335
Ar -1390.36565453   995.41570365  -636.11391651
Ar   925.85284749  -310.18518365  -527.22858725
Ar   -48.05676198   332.74919081  -682.64033807
Ar  -210.18472750   457.99324770 -1341.53688797
Ar -1320.37503691 -1408.20203455   996.99834862
Ar -1314.35009389  -192.79950363  -813.49568458
Ar   772.40276142   581.83643681  -483.74951803
Ar   701.62684149   737.98172577  -137.68391608
Ar -1310.25604305    63.71207406   397.89706531
Ar   636.55891907   712.71295786  -894.46450529
Ar  1065.26922554  -988.16570759  -343.52269691
Ar   915.95869281    44.20481986   672.52354432
Ar   582.01103109   503.77777941   215.67078421
Ar -1190.44664026  -926.57988328 -1166.35442408
Ar -1173.71924412   520.84056476  -234.23114779
Ar -1200.26197249  -672.86739555 -1093.04325780
Ar -1067.47145394    -0.75339062    42.23609114
Ar -1019.35348193   465.44323908  -197.20490284
Ar   724.42445556   184.78922407   666.37316852
Ar  -336.12144561   982.51525406 -1309.50572617
Ar -1442.17438649 -1394.60849600  1485.18188225
Ar  -720.15078147   770.62275099 -1380.44711753
Ar  1124.94005873  1088.51996658  -271.13135749
Ar  1096.53487030  1347.98357451  1362.05799812
Ar  -504.24870276  -109.97134430   212.00452518
Ar    -9.85481321 -1336.61719894   567.55764160
Ar -1110.58970428   616.32651471  -878.86712999
Ar -1268.21213218 -1115.38522890   974.33907192

50
Energies (in J/mol): KE=   2.536596E+12, PE=  -2.459944E-17, TE=   2.536596E+12, Step=    40, Time=          0.040 fs
Ar -1760.14286697   979.12955367 -1296.04155683
Ar   136.37852858   280.57064584 -1761.75525554
Ar -1440.56716004  -636.30213630  1513.13498368
Ar   775.95150217 -1171.19910747  -903.01356199
Ar -1603.51955105 -1497.55928067  -973.81972610
Ar -1745.85715925   432.74342613  -251.71864956
Ar -1272.03372584 -1146.80537291  1047.98007687
Ar -1929.08605736   617.21028386   870.31962661
Ar  1493.75706565   556.28624867  -389.56804352
Ar   550.23284469  -520.61877274  1616.87547320
Ar -1630.91759077 -1555.50213409   226.26031398
Ar   523.84198549   928.75624716  1871.52025953
Ar  1149.58920172  -876.77853502 -1033.13407808
Ar  -406.31524004  -307.82710592 -1986.39768533
Ar  -458.94180321   330.19295941  1912.90805752
Ar  1705.28470564   365.92959233   857.08821494
Ar   535.18017361   289.80558828   676.02331425
Ar -1809.59645050  1896.95113201  -644.79289792
Ar  1487.69877782 -1516.17429652   446.56722004
Ar  1227.92178628  1939.46957358  -803.51908965
Ar -1304.71875231     7.23722886   -52.15057891
Ar   919.58001530  -217.28199655  1497.72935041
Ar -1854.92609178  1323.99335334  -851.08358095
Ar  1232.12109538  -413.97290727  -704.77608351
Ar   -67.07032276   442.14790078  -910.55030935
Ar  -281.17949693   610.00450624 -1790.23203953
Ar -1762.66831060 -1879.70989018  1328.62505784
Ar -1753.14086169  -257.95690159 -1085.93952141
Ar  1026.66348242   773.85411953  -647.49587646
Ar   932.49127093   981.14132550  -185.92632671
Ar -1748.51754316    83.38869493   528.01905193
Ar   847.58574353   948.40962103 -1195.51426298
Ar  1417.77082042 -1319.92751377  -458.97172050
Ar  1219.91950414    56.40174042   895.90054694
Ar   775.58266223   669.93363659   286.39513846
Ar -1589.00257972 -1238.61593653 -1555.52142864
Ar -1568.23754644   692.44021899  -315.35001067
Ar -1601.22817137  -900.18988296 -1458.93606859
Ar -1426.57942128    -3.55494454    54.55333155
Ar -1360.71759122   618.68874811  -263.87484504
Ar   963.43475260   245.10844497   886.31195629
Ar  -451.13448091  1308.99039010 -1746.97516663
Ar -1923.38637380 -1862.36044065  1978.85892714
Ar  -962.18249090  1024.91415469 -1841.18099696
Ar  1497.74483461  1449.71772678  -363.67425667
Ar  1461.30847139  1796.72939913  1814.17447935
Ar  -673.37406412  -149.77389739   281.63338501
Ar   -15.66126201 -1782.66169843   754.37507017
Ar -1482.10432330   819.05937730 -1174.08342629
Ar -1693.64156259 -1489.64321813  1297.54459305

50
Energies (in J/mol): KE=   2.536596E+12, PE=  -6.269000E-18, TE=   2.536596E+12, Step=    50, Time=          0.050 fs
Ar -2200.79811615  1222.46461180 -1620.33412915
Ar   169.52059611   350.19647449 -2202.98414180
Ar -1802.26024672  -797.51324623  1890.08683138
Ar   968.12589585 -1464.96366934 -1130.04513678
Ar -2006.83535803 -1874.35299016 -1219.02521421
Ar -2183.47878337   539.44187572  -316.58109900
Ar -1590.57899650 -1435.58080856  1308.39471167
Ar -2412.61235345   769.93457911  1085.76346118
Ar  1865.64315675   693.60281861  -487.42204984
Ar   685.78408208  -653.06130549  2020.36828932
Ar -2039.86485594 -1945.97891301   282.43722965
Ar   653.92354517  1158.94960959  2337.13703331
Ar  1436.72333939 -1097.37901036 -1293.19059472
Ar  -510.18090479  -385.50340497 -2485.18091418
Ar  -575.71541238   412.17251037  2390.51180619
Ar  2130.32492030   457.06157850  1069.82890949
Ar   667.28236478   359.82376765   843.02423720
Ar -2262.46896976  2370.04211098  -808.30783293
Ar  1857.72045670 -1896.02004980   556.75024834
Ar  1533.37254103  2422.19920411 -1005.57376851
Ar -1631.23957083     6.72907053   -65.65521720
Ar  1147.15933039  -273.18368538  1871.26115748
Ar -2319.48652903  1652.57100303 -1066.05324540
Ar  1538.38934327  -517.76063090  -882.32357976
Ar   -86.08388354   551.54661074 -1138.46028064
Ar  -352.17426635   762.01576477 -2238.92719110
Ar -2204.96158430 -2351.21774581  1660.25176707
Ar -2191.93162949  -323.11429955 -1358.38335823
Ar  1280.92420343   965.87180224  -811.24223489
Ar  1163.35570037  1224.30092523  -234.16873734
Ar -2186.77904327   103.06531581   658.14103854
Ar  1058.61256799  1184.10628420 -1496.56402068
Ar  1770.27241530 -1651.68931995  -574.42074409
Ar  1523.88031548    68.59866099  1119.27754956
Ar   969.15429336   836.08949376   357.11949272
Ar -1987.55851917 -1550.65198977 -1944.68843319
Ar -1962.75584875   864.03987323  -396.46887356
Ar -2002.19437026 -1127.51237038 -1824.82887938
Ar -1785.68738863    -6.35649846    66.87057196
Ar -1702.08170052   771.93425714  -330.54478723
Ar  1202.44504964   305.42766586  1106.25074405
Ar  -566.14751621  1635.46552615 -2184.44460708
Ar -2404.59836110 -2330.11238530  2472.53597204
Ar -1204.21420034  1279.20555839 -2301.91487639
Ar  1870.54961050  1810.91548697  -456.21715584
Ar  1826.08207248  2245.47522374  2266.29096059
Ar  -842.49942549  -189.57645047   351.26224483
Ar   -21.46771082 -2228.70619793   941.19249875
Ar -1853.61894232  1021.79223989 -1469.29972259
Ar -2119.07099300 -1863.90120737  1620.75011418

50
Energies (in J/mol): KE=   2.536596E+12, PE=  -2.059937E-18, TE=   2.536596E+12, Step=    60, Time=          0.060 fs
Ar -2641.45336533  1465.79966994 -1944.62670148
Ar   202.66266364   419.82230315 -2644.21302805
Ar -2163.95333341  -958.72435616  2267.03867909
Ar  1160.30028952 -1758.72823120 -1357.07671156
Ar -2410.15116501 -2251.14669966 -1464.23070232
Ar -2621.10040750   646.14032532  -381.44354845
Ar -1909.12426717 -1724.35624422  1568.80934646
Ar -2896.13864953   922.65887437  1301.20729575
Ar  2237.52924786   830.91938855  -585.27605617
Ar   821.33531948  -785.50383823  2423.86110545
Ar -2448.81212111 -2336.45569192   338.61414532
Ar   784.00510485  1389.14297203  2802.75380709
Ar  1723.85747707 -1317.97948569 -1553.24711136
Ar  -614.04656954  -463.17970403 -2983.96414304
Ar  -692.48902154   494.15206133  2868.11555486
Ar  2555.36513496   548.19356468  1282.56960403
Ar   799.38455596   429.84194701  1010.02516015
Ar -2715.34148903  2843.13308995  -971.82276795
Ar  2227.74213558 -2275.86580307   666.93327664
Ar  1838.82329578  2904.92883465 -1207.62844737
Ar -1957.76038935     6.22091219   -79.15985549
Ar  1374.73864548  -329.08537421  2244.79296454
Ar -2784.04696628  1981.14865272 -1281.02290984
Ar  1844.65759116  -621.54835452 -1059.87107602
Ar  -105.09744431   660.94532070 -1366.37025192
Ar  -423.16903577   914.02702331 -2687.62234267
Ar -2647.25485800 -2822.72560144  1991.87847629
Ar -2630.72239728  -388.27169750 -1630.82719505
Ar  1535.18492444  1157.88948496  -974.98859332
Ar  1394.22012981  1467.46052497  -282.41114797
Ar -2625.04054338   122.74193669   788.26302515
Ar  1269.63939245  1419.80294738 -1797.61377837
Ar  2122.77401018 -1983.45112613  -689.86976769
Ar  1827.84112682    80.79558156  1342.65455218
Ar  1162.72592450  1002.24535094   427.84384697
Ar -2386.11445863 -1862.68804302 -2333.85543774
Ar -2357.27415106  1035.63952746  -477.58773644
Ar -2403.16056915 -1354.83485779 -2190.72169018
Ar -2144.79535597    -9.15805239    79.18781237
Ar -2043.44580981   925.17976617  -397.21472943
Ar  1441.45534668   365.74688676  1326.18953181
Ar  -681.16055152  1961.94066220 -2621.91404753
Ar -2885.81034841 -2797.86432996  2966.21301694
Ar -1446.24590978  1533.49696209 -2762.64875582
Ar  2243.35438638  2172.11324717  -548.76005502
Ar  2190.85567357  2694.22104835  2718.40744182
Ar -1011.62478685  -229.37900355   420.89110466
Ar   -27.27415962 -2674.75069743  1128.00992733
Ar -2225.13356134  1224.52510248 -1764.51601889
Ar -2544.50042341 -2238.15919660  1943.95563530

50
Energies (in J/mol): KE=   2.536596E+12, PE=  -8.058207E-19, TE=   2.536596E+12, Step=    70, Time=          0.070 fs
Ar -3082.10861451  1709.13472807 -2268.91927381
Ar   235.80473116   489.44813180 -3085.44191430
Ar -2525.64642010 -1119.93546609  2643.99052679
Ar  1352.47468319 -2052.49279307 -1584.10828635
Ar -2813.46697199 -2627.94040915 -1709.43619043
Ar -3058.72203162   752.83877491  -446.30599789
Ar -2227.66953784 -2013.13167987  1829.22398126
Ar -3379.66494562  1075.38316962  1516.65113032
Ar  2609.41533896   968.23595849  -683.13006249
Ar   956.88655688  -917.94637098  2827.35392157
Ar -2857.75938628 -2726.93247083   394.79106099
Ar   914.08666452  1619.33633446  3268.37058087
Ar  2010.99161474 -1538.57996103 -1813.30362800
Ar  -717.91223429  -540.85600309 -3482.74737189
Ar  -809.26263071   576.13161229  3345.71930353
Ar  2980.40534962   639.32555086  1495.31029857
Ar   931.48674713   499.86012638  1177.02608309
Ar -3168.21400829  3316.22406892 -1135.33770297
Ar  2597.76381446 -2655.71155635   777.11630493
Ar  2144.27405053  3387.65846518 -1409.68312623
Ar -2284.28120787     5.71275386   -92.66449379
Ar  1602.31796057  -384.98706305  2618.32477161
Ar -3248.60740352  2309.72630242 -1495.99257429
Ar  2150.92583905  -725.33607815 -1237.41857228
Ar  -124.11100509   770.34403066 -1594.28022320
Ar  -494.16380519  1066.03828184 -3136.31749424
Ar -3089.54813169 -3294.23345708  2323.50518552
Ar -3069.51316508  -453.42909546 -1903.27103188
Ar  1789.44564544  1349.90716767 -1138.73495175
Ar  1625.08455925  1710.62012470  -330.65355860
Ar -3063.30204348   142.41855757   918.38501177
Ar  1480.66621691  1655.49961055 -2098.66353606
Ar  2475.27560506 -2315.21293232  -805.31879128
Ar  2131.80193815    92.99250212  1566.03155479
Ar  1356.29755563  1168.40120812   498.56820123
Ar -2784.67039809 -2174.72409627 -2723.02244229
Ar -2751.79245338  1207.23918169  -558.70659933
Ar -2804.12676803 -1582.15734520 -2556.61450097
Ar -2503.90332332   -11.95960631    91.50505277
Ar -2384.80991910  1078.42527520  -463.88467163
Ar  1680.46564371   426.06610765  1546.12831957
Ar  -796.17358682  2288.41579825 -3059.38348799
Ar -3367.02233571 -3265.61627461  3459.89006184
Ar -1688.27761922  1787.78836580 -3223.38263525
Ar  2616.15916226  2533.31100737  -641.30295419
Ar  2555.62927466  3142.96687297  3170.52392305
Ar -1180.75014822  -269.18155664   490.51996448
Ar   -33.08060842 -3120.79519693  1314.82735590
Ar -2596.64818036  1427.25796507 -2059.73231519
Ar -2969.92985382 -2612.41718584  2267.16115643

50
Energies (in J/mol): KE=   2.536596E+12, PE=  -3.579447E-19, TE=   2.536596E+12, Step=    80, Time=          0.080 fs
Ar -3522.76386369  1952.46978621 -2593.21184613
Ar   268.94679869   559.07396045 -3526.67080056
Ar -2887.33950678 -1281.14657602  3020.94237449
Ar  1544.64907687 -2346.25735493 -1811.13986114
Ar -3216.78277897 -3004.73411864 -1954.64167854
Ar -3496.34365574   859.53722450  -511.16844733
Ar -2546.21480851 -2301.90711553  2089.63861605
Ar -3863.19124170  1228.10746487  1732.09496489
Ar  2981.30143007  1105.55252844  -780.98406881
Ar  1092.43779427 -1050.38890373  3230.84673769
Ar -3266.70665146 -3117.40924974   450.96797665
Ar  1044.16822420  1849.52969689  3733.98735465
Ar  2298.12575242 -1759.18043636 -2073.36014464
Ar  -821.77789904  -618.53230214 -3981.53060074
Ar  -926.03623987   658.11116324  3823.32305220
Ar  3405.44556429   730.45753704  1708.05099311
Ar  1063.58893831   569.87830575  1344.02700604
Ar -3621.08652756  3789.31504789 -1298.85263798
Ar  2967.78549334 -3035.55730962   887.29933323
Ar  2449.72480528  3870.38809572 -1611.73780508
Ar -2610.80202639     5.20459553  -106.16913208
Ar  1829.89727566  -440.88875188  2991.85657867
Ar -3713.16784077  2638.30395211 -1710.96223873
Ar  2457.19408693  -829.12380177 -1414.96606853
Ar  -143.12456587   879.74274062 -1822.19019448
Ar  -565.15857461  1218.04954038 -3585.01264581
Ar -3531.84140539 -3765.74131271  2655.13189475
Ar -3508.30393288  -518.58649342 -2175.71486870
Ar  2043.70636645  1541.92485039 -1302.48131017
Ar  1855.94898869  1953.77972443  -378.89596923
Ar -3501.56354359   162.09517845  1048.50699838
Ar  1691.69304137  1891.19627372 -2399.71329376
Ar  2827.77719995 -2646.97473850  -920.76781487
Ar  2435.76274949   105.18942269  1789.40855741
Ar  1549.86918677  1334.55706529   569.29255549
Ar -3183.22633754 -2486.76014952 -3112.18944684
Ar -3146.31075569  1378.83883592  -639.82546221
Ar -3205.09296692 -1809.47983262 -2922.50731176
Ar -2863.01129066   -14.76116023   103.82229318
Ar -2726.17402840  1231.67078423  -530.55461383
Ar  1919.47594075   486.38532855  1766.06710733
Ar  -911.18662212  2614.89093430 -3496.85292844
Ar -3848.23432302 -3733.36821926  3953.56710674
Ar -1930.30932866  2042.07976950 -3684.11651468
Ar  2988.96393814  2894.50876757  -733.84585337
Ar  2920.40287576  3591.71269758  3622.64040429
Ar -1349.87550958  -308.98410972   560.14882430
Ar   -38.88705722 -3566.83969643  1501.64478448
Ar -2968.16279937  1629.99082767 -2354.94861149
Ar -3395.35928422 -2986.67517507  2590.36667756

50
Energies (in J/mol): KE=   2.536596E+12, PE=  -1.751508E-19, TE=   2.536596E+12, Step=    90, Time=          0.090 fs
Ar -3963.41911287  2195.80484434 -2917.50441846
Ar   302.08886621   628.69978911 -3967.89968681
Ar -3249.03259347 -1442.35768595  3397.89422219
Ar  1736.82347054 -2640.02191680 -2038.17143592
Ar -3620.09858594 -3381.52782813 -2199.84716665
Ar -3933.96527987   966.23567409  -576.03089678
Ar -2864.76007918 -2590.68255119  2350.05325085
Ar -4346.71753779  1380.83176012  1947.53879946
Ar  3353.18752117  1242.86909838  -878.83807513
Ar  1227.98903167 -1182.83143647  3634.33955381
Ar -3675.65391663 -3507.88602866   507.14489232
Ar  1174.24978387  2079.72305932  4199.60412843
Ar  2585.25989009 -1979.78091170 -2333.41666128
Ar  -925.64356379  -696.20860120 -4480.31382960
Ar -1042.80984904   740.09071420  4300.92680088
Ar  3830.48577895   821.58952321  1920.79168766
Ar  1195.69112949   639.89648511  1511.02792899
Ar -4073.95904682  4262.40602686 -1462.36757300
Ar  3337.80717223 -3415.40306290   997.48236153
Ar  2755.17556002  4353.11772625 -1813.79248394
Ar -2937.32284491     4.69643719  -119.67377037
Ar  2057.47659075  -496.79044072  3365.38838573
Ar -4177.72827802  2966.88160180 -1925.93190318
Ar  2763.46233482  -932.91152539 -1592.51356479
Ar  -162.13812664   989.14145058 -2050.10016577
Ar  -636.15334403  1370.06079892 -4033.70779738
Ar -3974.13467908 -4237.24916834  2986.75860397
Ar -3947.09470068  -583.74389138 -2448.15870553
Ar  2297.96708745  1733.94253310 -1466.22766860
Ar  2086.81341814  2196.93932416  -427.13837986
Ar -3939.82504370   181.77179933  1178.62898500
Ar  1902.71986583  2126.89293690 -2700.76305145
Ar  3180.27879483 -2978.73654468 -1036.21683846
Ar  2739.72356083   117.38634325  2012.78556003
Ar  1743.44081790  1500.71292247   640.01690974
Ar -3581.78227700 -2798.79620276 -3501.35645139
Ar -3540.82905800  1550.43849015  -720.94432510
Ar -3606.05916581 -2036.80232003 -3288.40012256
Ar -3222.11925801   -17.56271415   116.13953359
Ar -3067.53813769  1384.91629326  -597.22455603
Ar  2158.48623779   546.70454944  1986.00589509
Ar -1026.19965743  2941.36607035 -3934.32236890
Ar -4329.44631032 -4201.12016391  4447.24415164
Ar -2172.34103810  2296.37117320 -4144.85039412
Ar  3361.76871402  3255.70652776  -826.38875255
Ar  3285.17647685  4040.45852220  4074.75688552
Ar -1519.00087095  -348.78666280   629.77768413
Ar   -44.69350602 -4012.88419593  1688.46221305
Ar -3339.67741839  1832.72369026 -2650.16490778
Ar -3820.78871463 -3360.93316431  2913.57219869

50
Energies (in J/mol): KE=   2.536596E+12, PE=  -9.248454E-20, TE=   2.536596E+12, Step=   100, Time=          0.100 fs
Ar -4404.07436205  2439.13990248 -3241.79699079
Ar   335.23093374   698.32561776 -4409.12857306
Ar -3610.72568016 -1603.56879588  3774.84606989
Ar  1928.99786421 -2933.78647866 -2265.20301071
Ar -4023.41439292 -3758.32153763 -2445.05265476
Ar -4371.58690399  1072.93412369  -640.89334622
Ar -3183.30534985 -2879.45798684  2610.46788564
Ar -4830.24383388  1533.55605538  2162.98263403
Ar  3725.07361228  1380.18566832  -976.69208146
Ar  1363.54026906 -1315.27396922  4037.83236994
Ar -4084.60118180 -3898.36280757   563.32180799
Ar  1304.33134355  2309.91642176  4665.22090220
Ar  2872.39402776 -2200.38138703 -2593.47317792
Ar -1029.50922854  -773.88490026 -4979.09705845
Ar -1159.58345821   822.07026516  4778.53054955
Ar  4255.52599361   912.72150939  2133.53238220
Ar  1327.79332066   709.91466448  1678.02885194
Ar -4526.83156608  4735.49700583 -1625.88250802
Ar  3707.82885111 -3795.24881617  1107.66538983
Ar  3060.62631477  4835.84735679 -2015.84716280
Ar -3263.84366344     4.18827886  -133.17840867
Ar  2285.05590584  -552.69212955  3738.92019280
Ar -4642.28871527  3295.45925149 -2140.90156762
Ar  3069.73058271 -1036.69924902 -1770.06106105
Ar  -181.15168742  1098.54016054 -2278.01013705
Ar  -707.14811346  1522.07205745 -4482.40294895
Ar -4416.42795278 -4708.75702397  3318.38531320
Ar -4385.88546847  -648.90128934 -2720.60254235
Ar  2552.22780846  1925.96021582 -1629.97402703
Ar  2317.67784758  2440.09892389  -475.38079049
Ar -4378.08654381   201.44842020  1308.75097161
Ar  2113.74669029  2362.58960007 -3001.81280915
Ar  3532.78038971 -3310.49835086 -1151.66586206
Ar  3043.68437216   129.58326382  2236.16256265
Ar  1937.01244904  1666.86877965   710.74126400
Ar -3980.33821646 -3110.83225601 -3890.52345594
Ar -3935.34736032  1722.03814438  -802.06318798
Ar -4007.02536469 -2264.12480744 -3654.29293335
Ar -3581.22722535   -20.36426807   128.45677400
Ar -3408.90224699  1538.16180229  -663.89449823
Ar  2397.49653483   607.02377034  2205.94468286
Ar -1141.21269273  3267.84120639 -4371.79180935
Ar -4810.65829763 -4668.87210857  4940.92119653
Ar -2414.37274754  2550.66257690 -4605.58427355
Ar  3734.57348990  3616.90428796  -918.93165172
Ar  3649.95007794  4489.20434681  4526.87336675
Ar -1688.12623231  -388.58921589   699.40654395
Ar   -50.49995482 -4458.92869543  1875.27964163
Ar -3711.19203741  2035.45655285 -2945.38120408
Ar -4246.21814504 -3735.19115354  3236.77771982

50
Energies (in J/mol): KE=   2.536596E+12, PE=  -5.193010E-20, TE=   2.536596E+12, Step=   110, Time=          0.110 fs
Ar -4844.72961124  2682.47496061 -3566.08956311
Ar   368.37300127   767.95144642 -4850.35745932
Ar -3972.41876684 -1764.77990581  4151.79791759
Ar  2121.17225789 -3227.55104053 -2492.23458550
Ar -4426.73019990 -4135.11524712 -2690.25814287
Ar -4809.20852811  1179.63257328  -705.75579566
Ar -3501.85062052 -3168.23342250  2870.88252044
Ar -5313.77012996  1686.28035063  2378.42646860
Ar  4096.95970338  1517.50223826 -1074.54608778
Ar  1499.09150646 -1447.71650197  4441.32518606
Ar -4493.54844697 -4288.83958648   619.49872366
Ar  1434.41290322  2540.10978419  5130.83767598
Ar  3159.52816544 -2420.98186237 -2853.52969456
Ar -1133.37489330  -851.56119932 -5477.88028731
Ar -1276.35706737   904.04981612  5256.13429822
Ar  4680.56620827  1003.85349557  2346.27307674
Ar  1459.89551184   779.93284384  1845.02977489
Ar -4979.70408535  5208.58798480 -1789.39744304
Ar  4077.85052999 -4175.09456945  1217.84841813
Ar  3366.07706952  5318.57698732 -2217.90184166
Ar -3590.36448196     3.68012053  -146.68304696
Ar  2512.63522094  -608.59381838  4112.45199986
Ar -5106.84915251  3624.03690118 -2355.87123207
Ar  3375.99883060 -1140.48697264 -1947.60855730
Ar  -200.16524820  1207.93887050 -2505.92010833
Ar  -778.14288288  1674.08331599 -4931.09810052
Ar -4858.72122648 -5180.26487960  3650.01202242
Ar -4824.67623627  -714.05868730 -2993.04637917
Ar  2806.48852947  2117.97789853 -1793.72038546
Ar  2548.54227702  2683.25852362  -523.62320112
Ar -4816.34804391   221.12504108  1438.87295823
Ar  2324.77351475  2598.28626324 -3302.86256684
Ar  3885.28198459 -3642.26015704 -1267.11488565
Ar  3347.64518350   141.78018439  2459.53956526
Ar  2130.58408017  1833.02463683   781.46561825
Ar -4378.89415591 -3422.86830926 -4279.69046050
Ar -4329.86566263  1893.63779861  -883.18205087
Ar -4407.99156358 -2491.44729486 -4020.18574414
Ar -3940.33519270   -23.16582199   140.77401441
Ar -3750.26635628  1691.40731132  -730.56444043
Ar  2636.50683187   667.34299123  2425.88347062
Ar -1256.22572803  3594.31634244 -4809.26124981
Ar -5291.87028493 -5136.62405322  5434.59824143
Ar -2656.40445698  2804.95398060 -5066.31815298
Ar  4107.37826578  3978.10204816 -1011.47455090
Ar  4014.72367903  4937.95017142  4978.98984799
Ar -1857.25159368  -428.39176897   769.03540378
Ar   -56.30640362 -4904.97319493  2062.09707020
Ar -4082.70665643  2238.18941544 -3240.59750038
Ar -4671.64757545 -4109.44914278  3559.98324095

50
Energies (in J/mol): KE=   2.536596E+12, PE=  -3.067419E-20, TE=   2.536596E+12, Step=   120, Time=          0.120 fs
Ar -5285.38486042  2925.81001875 -3890.38213544
Ar   401.51506879   837.57727507 -5291.58634557
Ar -4334.11185353 -1925.99101574  4528.74976529
Ar  2313.34665156 -3521.31560239 -2719.26616028
Ar -4830.04600688 -4511.90895661 -2935.46363098
Ar -5246.83015223  1286.33102287  -770.61824510
Ar -3820.39589119 -3457.00885816  3131.29715523
Ar -5797.29642605  1839.00464588  2593.87030316
Ar  4468.84579449  1654.81880821 -1172.40009410
Ar  1634.64274386 -1580.15903471  4844.81800218
Ar -4902.49571214 -4679.31636540   675.67563933
Ar  1564.49446290  2770.30314662  5596.45444976
Ar  3446.66230311 -2641.58233770 -3113.58621120
Ar -1237.24055805  -929.23749837 -5976.66351616
Ar -1393.13067654   986.02936708  5733.73804689
Ar  5105.60642293  1094.98548174  2559.01377129
Ar  1591.99770302   849.95102321  2012.03069784
Ar -5432.57660461  5681.67896377 -1952.91237805
Ar  4447.87220887 -4554.94032272  1328.03144643
Ar  3671.52782427  5801.30661786 -2419.95652052
Ar -3916.88530048     3.17196219  -160.18768526
Ar  2740.21453603  -664.49550722  4485.98380692
Ar -5571.40958976  3952.61455088 -2570.84089651
Ar  3682.26707849 -1244.27469626 -2125.15605356
Ar  -219.17880898  1317.33758047 -2733.83007962
Ar  -849.13765230  1826.09457453 -5379.79325208
Ar -5301.01450017 -5651.77273524  3981.63873165
Ar -5263.46700407  -779.21608526 -3265.49021600
Ar  3060.74925047  2309.99558125 -1957.46674389
Ar  2779.40670646  2926.41812335  -571.86561175
Ar -5254.60954402   240.80166196  1568.99494484
Ar  2535.80033921  2833.98292641 -3603.91232453
Ar  4237.78357947 -3974.02196322 -1382.56390924
Ar  3651.60599483   153.97710495  2682.91656788
Ar  2324.15571131  1999.18049400   852.18997251
Ar -4777.45009537 -3734.90436250 -4668.85746505
Ar -4724.38396495  2065.23745284  -964.30091375
Ar -4808.95776246 -2718.76978227 -4386.07855493
Ar -4299.44316004   -25.96737591   153.09125482
Ar -4091.63046557  1844.65282035  -797.23438263
Ar  2875.51712890   727.66221212  2645.82225838
Ar -1371.23876333  3920.79147849 -5246.73069026
Ar -5773.08227224 -5604.37599787  5928.27528633
Ar -2898.43616641  3059.24538431 -5527.05203241