10
Energies (in J/mol): KE=   3.510005E-12, PE=  -2.608750E-04, TE=  -2.608750E-04, Step=    10, Time=          0.010 fs
Ar     2.45877951     5.04253867     1.13982723
Ar     1.90528376     3.18427292     1.28359297
Ar     5.14722388     4.34798353     1.75281992
Ar     1.92646872     2.92013861     5.45674815
Ar     7.87116791     6.50320552     3.82621385
Ar     4.25883721     8.79834483     6.31279536
Ar     2.50706114     9.13458230     4.23876111
Ar     3.68278811     9.10425167     5.43817980
Ar     9.38042657     5.94600784     3.23195745
Ar     6.95316083     8.95713208     6.39206984

10
Energies (in J/mol): KE=   1.399500E-11, PE=  -2.608750E-04, TE=  -2.608750E-04, Step=    20, Time=          0.020 fs
Ar     2.45877951     5.04253867     1.13982723
Ar     1.90528376     3.18427292     1.28359297
Ar     5.14722388     4.34798353     1.75281992
Ar     1.92646872     2.92013861     5.45674815
Ar     7.87116791     6.50320552     3.82621385
Ar     4.25883721     8.79834483     6.31279536
Ar     2.50706114     9.13458230     4.23876111
Ar     3.68278811     9.10425167     5.43817980
Ar     9.38042657     5.94600784     3.23195745
Ar     6.95316083     8.95713208     6.39206984

10
Energies (in J/mol): KE=   3.145942E-11, PE=  -2.608750E-04, TE=  -2.608750E-04, Step=    30, Time=          0.030 fs
Ar     2.45877951     5.04253867     1.13982723
Ar     1.90528376     3.18427292     1.28359297
Ar     5.14722388     4.34798353     1.75281992
Ar     1.92646872     2.92013861     5.45674815
Ar     7.87116791     6.50320552     3.82621385
Ar     4.25883720     8.79834483     6.31279535
Ar     2.50706114     9.13458230     4.23876111
Ar     3.68278812     9.10425167     5.43817981
Ar     9.38042657     5.94600784     3.23195745
Ar     6.95316083     8.95713208     6.39206984

10
Energies (in J/mol): KE=   5.590325E-11, PE=  -2.608750E-04, TE=  -2.608750E-04, Step=    40, Time=          0.040 fs
Ar     2.45877951     5.04253867     1.13982723
Ar     1.90528376     3.18427292     1.28359297
Ar     5.14722388     4.34798353     1.75281992
Ar     1.92646872     2.92013861     5.45674815
Ar     7.87116791     6.50320552     3.82621385
Ar     4.25883720     8.79834484     6.31279534
Ar     2.50706114     9.13458230     4.23876111
Ar     3.68278812     9.10425166     5.43817982
Ar     9.38042657     5.94600784     3.23195745
Ar     6.95316083     8.95713208     6.39206984

10
Energies (in J/mol): KE=   8.732651E-11, PE=  -2.608751E-04, TE=  -2.608750E-04, Step=    50, Time=          0.050 fs
Ar     2.45877951     5.04253867     1.13982723
Ar     1.90528376     3.18427292     1.28359297
Ar     5.14722388     4.34798353     1.75281992
Ar     1.92646872     2.92013861     5.45674815
Ar     7.87116791     6.50320552     3.82621385
Ar     4.25883719     8.79834484     6.31279533
Ar     2.50706114     9.13458230     4.23876111
Ar     3.68278813     9.10425166     5.43817983
Ar     9.38042657     5.94600784     3.23195745
Ar     6.95316083     8.95713208     6.39206984

10
Energies (in J/mol): KE=   1.257292E-10, PE=  -2.608751E-04, TE=  -2.608750E-04, Step=    60, Time=          0.060 fs
Ar     2.45877951     5.04253867     1.13982723
Ar     1.90528376     3.18427292     1.28359297
Ar     5.14722388     4.34798353     1.75281992
Ar     1.92646872     2.92013861     5.45674815
Ar     7.87116791     6.50320552     3.82621385
Ar     4.25883718     8.79834485     6.31279532
Ar     2.50706114     9.13458230     4.23876111
Ar     3.68278814     9.10425165     5.43817984
Ar     9.38042657     5.94600784     3.23195745
Ar     6.95316083     8.95713208     6.39206984

10
Energies (in J/mol): KE=   1.711113E-10, PE=  -2.608752E-04, TE=  -2.608750E-04, Step=    70, Time=          0.070 fs
Ar     2.45877951     5.04253867     1.13982723
Ar     1.90528376     3.18427292     1.28359297
Ar     5.14722388     4.34798353     1.75281992
Ar     1.92646872     2.92013861     5.45674815
Ar     7.87116791     6.50320552     3.82621385
Ar     4.25883717     8.79834485     6.31279530
Ar     2.50706114     9.13458230     4.23876111
Ar     3.68278815     9.10425165     5.43817986
Ar     9.38042657     5.94600784     3.23195745
Ar     6.95316083     8.95713208     6.39206984

10
Energies (in J/mol): KE=   2.234729E-10, PE=  -2.608752E-04, TE=  -2.608750E-04, Step=    80, Time=          0.080 fs
Ar     2.45877951     5.04253867     1.13982723
Ar     1.90528376     3.18427292     1.28359297
Ar     5.14722388     4.34798353     1.75281992
Ar     1.92646872     2.92013861     5.45674815
Ar     7.87116791     6.50320552     3.82621385
Ar     4.25883716     8.79834486     6.31279528
Ar     2.50706114     9.13458230     4.23876111
Ar     3.68278816     9.10425164     5.43817987
Ar     9.38042657     5.94600784     3.23195745
Ar     6.95316083     8.95713208     6.39206984

10
Energies (in J/mol): KE=   2.828139E-10, PE=  -2.608753E-04, TE=  -2.608750E-04, Step=    90, Time=          0.090 fs
Ar     2.45877951     5.04253867     1.13982723
Ar     1.90528376     3.18427292     1.28359297
Ar     5.14722388     4.34798353     1.75281992
Ar     1.92646872     2.92013861     5.45674815
Ar     7.87116791     6.50320552     3.82621385
Ar     4.25883715     8.79834486     6.31279526
Ar     2.50706114     9.13458230     4.23876111
Ar     3.68278817     9.10425164     5.43817989
Ar     9.38042657     5.94600784     3.23195745
Ar     6.95316083     8.95713208     6.39206984

10
Energies (in J/mol): KE=   3.491344E-10, PE=  -2.608753E-04, TE=  -2.608750E-04, Step=   100, Time=          0.100 fs
Ar     2.45877951     5.04253867     1.13982723
Ar     1.90528376     3.18427292     1.28359297
Ar     5.14722388     4.34798353     1.75281992
Ar     1.92646872     2.92013861     5.45674815
Ar     7.87116792     6.50320552     3.82621385
Ar     4.25883713     8.79834487     6.31279524
Ar     2.50706115     9.13458230     4.23876112
Ar     3.68278818     9.10425163     5.43817992
Ar     9.38042656     5.94600784     3.23195745
Ar     6.95316083     8.95713208     6.39206984

10
Energies (in J/mol): KE=   4.224343E-10, PE=  -2.608754E-04, TE=  -2.608750E-04, Step=   110, Time=          0.110 fs
Ar     2.45877951     5.04253867     1.13982723
Ar     1.90528376     3.18427292     1.28359297
Ar     5.14722388     4.34798353     1.75281992
Ar     1.92646872     2.92013861     5.45674815
Ar     7.87116792     6.50320552     3.82621385
Ar     4.25883711     8.79834488     6.31279521
Ar     2.50706115     9.13458230     4.23876112
Ar     3.68278820     9.10425162     5.43817994
Ar     9.38042656     5.94600784     3.23195745
Ar     6.95316083     8.95713208     6.39206984

10
Energies (in J/mol): KE=   5.027137E-10, PE=  -2.608755E-04, TE=  -2.608750E-04, Step=   120, Time=          0.120 fs
Ar     2.45877951     5.04253867     1.13982723
Ar     1.90528376     3.18427292     1.28359297
Ar     5.14722388     4.34798353     1.75281992
Ar     1.92646872     2.92013861     5.45674815
Ar     7.87116792     6.50320552     3.82621385
Ar     4.25883710     8.79834489     6.31279519
Ar     2.50706115     9.13458230     4.23876112
Ar     3.68278822     9.10425161     5.43817997
Ar     9.38042656     5.94600784     3.23195745
Ar     6.95316083     8.95713208     6.39206984

10
Energies (in J/mol): KE=   5.899727E-10, PE=  -2.608756E-04, TE=  -2.608750E-04, Step=   130, Time=          0.130 fs
Ar     2.45877951     5.04253867     1.13982723
Ar     1.90528376     3.18427292     1.28359297
Ar     5.14722388     4.34798353     1.75281992
Ar     1.92646872     2.92013861     5.45674815
Ar     7.87116792     6.50320552     3.82621385
Ar     4.25883708     8.79834490     6.31279515
Ar     2.50706115     9.13458230     4.23876112
Ar     3.68278824     9.10425160     5.43818000
Ar     9.38042656     5.94600784     3.23195745
Ar     6.95316083     8.95713208     6.39206984

10
Energies (in J/mol): KE=   6.842111E-10, PE=  -2.608757E-04, TE=  -2.608750E-04, Step=   140, Time=          0.140 fs
Ar     2.45877951     5.04253867     1.13982723
Ar     1.90528376     3.18427292     1.28359297
Ar     5.14722388     4.34798353     1.75281992
Ar     1.92646872     2.92013861     5.45674815
Ar     7.87116792     6.50320552     3.82621385
Ar     4.25883705     8.79834491     6.31279512
Ar     2.50706115     9.13458230     4.23876112
Ar     3.68278826     9.10425159     5.43818003
Ar     9.38042656     5.94600784     3.23195745
Ar     6.95316083     8.95713208     6.39206984

10
Energies (in J/mol): KE=   7.854290E-10, PE=  -2.608758E-04, TE=  -2.608750E-04, Step=   150, Time=          0.150 fs
Ar     2.45877951     5.04253866     1.13982723
Ar     1.90528376     3.18427293     1.28359297
Ar     5.14722388     4.34798353     1.75281992
Ar     1.92646872     2.92013861     5.45674815
Ar     7.87116792     6.50320552     3.82621385
Ar     4.25883703     8.79834493     6.31279509
Ar     2.50706115     9.13458230     4.23876112
Ar     3.68278828     9.10425157     5.43818006
Ar     9.38042656     5.94600785     3.23195745
Ar     6.95316083     8.95713208     6.39206984

10
Energies (in J/mol): KE=   8.936265E-10, PE=  -2.608759E-04, TE=  -2.608750E-04, Step=   160, Time=          0.160 fs
Ar     2.45877951     5.04253866     1.13982723
Ar     1.90528376     3.18427293     1.28359297
Ar     5.14722388     4.34798353     1.75281992
Ar     1.92646872     2.92013861     5.45674815
Ar     7.87116793     6.50320551     3.82621384
Ar     4.25883701     8.79834494     6.31279505
Ar     2.50706115     9.13458230     4.23876112
Ar     3.68278830     9.10425156     5.43818010
Ar     9.38042656     5.94600785     3.23195746
Ar     6.95316083     8.95713208     6.39206984

10
Energies (in J/mol): KE=   1.008804E-09, PE=  -2.608760E-04, TE=  -2.608750E-04, Step=   170, Time=          0.170 fs
Ar     2.45877951     5.04253866     1.13982723
Ar     1.90528376     3.18427293     1.28359297
Ar     5.14722388     4.34798353     1.75281992
Ar     1.92646872     2.92013861     5.45674815
Ar     7.87116793     6.50320551     3.82621384
Ar     4.25883698     8.79834495     6.31279501
Ar     2.50706116     9.13458230     4.23876113
Ar     3.68278833     9.10425155     5.43818013
Ar     9.38042655     5.94600785     3.23195746
Ar     6.95316083     8.95713208     6.39206984

10
Energies (in J/mol): KE=   1.130960E-09, PE=  -2.608761E-04, TE=  -2.608750E-04, Step=   180, Time=          0.180 fs
Ar     2.45877951     5.04253866     1.13982723
Ar     1.90528376     3.18427293     1.28359297
Ar     5.14722388     4.34798353     1.75281992
Ar     1.92646872     2.92013861     5.45674815
Ar     7.87116793     6.50320551     3.82621384
Ar     4.25883695     8.79834497     6.31279497
Ar     2.50706116     9.13458230     4.23876113
Ar     3.68278835     9.10425153     5.43818017
Ar     9.38042655     5.94600785     3.23195746
Ar     6.95316083     8.95713208     6.39206984

10
Energies (in J/mol): KE=   1.260096E-09, PE=  -2.608762E-04, TE=  -2.608750E-04, Step=   190, Time=          0.190 fs
Ar     2.45877951     5.04253866     1.13982723
Ar     1.90528376     3.18427293     1.28359297
Ar     5.14722388     4.34798353     1.75281992
Ar     1.92646872     2.92013861     5.45674815
Ar     7.87116793     6.50320551     3.82621384
Ar     4.25883692     8.79834498     6.31279492
Ar     2.50706116     9.13458230     4.23876113
Ar     3.68278838     9.10425152     5.43818022
Ar     9.38042655     5.94600785     3.23195746
Ar     6.95316083     8.95713208     6.39206984

10
Energies (in J/mol): KE=   1.396212E-09, PE=  -2.608764E-04, TE=  -2.608750E-04, Step=   200, Time=          0.200 fs
Ar     2.45877951     5.04253866     1.13982723
Ar     1.90528376     3.18427293     1.28359297
Ar     5.14722388     4.34798353     1.75281992
Ar     1.92646872     2.92013861     5.45674815
Ar     7.87116793     6.50320551     3.82621384
Ar     4.25883689     8.79834500     6.31279487
Ar     2.50706116     9.13458230     4.23876113
Ar     3.68278841     9.10425150     5.43818026
Ar     9.38042655     5.94600785     3.23195746
Ar     6.95316083     8.95713208     6.39206984

10
Energies (in J/mol): KE=   1.539308E-09, PE=  -2.608765E-04, TE=  -2.608750E-04, Step=   210, Time=          0.210 fs
Ar     2.45877951     5.04253866     1.13982723
Ar     1.90528376     3.18427293     1.28359297
Ar     5.14722388     4.34798353     1.75281992
Ar     1.92646872     2.92013861     5.45674815
Ar     7.87116794     6.50320551     3.82621384
Ar     4.25883686     8.79834502     6.31279483
Ar     2.50706116     9.13458230     4.23876113
Ar     3.68278844     9.10425148     5.43818031
Ar     9.38042655     5.94600785     3.23195746
Ar     6.95316083     8.95713208     6.39206984

10
Energies (in J/mol): KE=   1.689383E-09, PE=  -2.608767E-04, TE=  -2.608750E-04, Step=   220, Time=          0.220 fs
Ar     2.45877951     5.04253866     1.13982723
Ar     1.90528376     3.18427293     1.28359297
Ar     5.14722388     4.34798353     1.75281992
Ar     1.92646872     2.92013861     5.45674815
Ar     7.87116794     6.50320551     3.82621384
Ar     4.25883682     8.79834504     6.31279477
Ar     2.50706117     9.13458230     4.23876114
Ar     3.68278847     9.10425147     5.43818036
Ar     9.38042654     5.94600785     3.23195746
Ar     6.95316083     8.95713208     6.39206984

10
Energies (in J/mol): KE=   1.846437E-09, PE=  -2.608768E-04, TE=  -2.608750E-04, Step=   230, Time=          0.230 fs
Ar     2.45877951     5.04253866     1.13982723
Ar     1.90528377     3.18427293     1.28359297
Ar     5.14722388     4.34798353     1.75281992
Ar     1.92646872     2.92013861     5.45674815
Ar     7.87116794     6.50320551     3.82621384
Ar     4.25883679     8.79834505     6.31279472
Ar     2.50706117     9.13458230     4.23876114
Ar     3.68278850     9.10425145     5.43818041
Ar     9.38042654     5.94600785     3.23195746
Ar     6.95316083     8.95713208     6.39206984

10
Energies (in J/mol): KE=   2.010472E-09, PE=  -2.608770E-04, TE=  -2.608750E-04, Step=   240, Time=          0.240 fs
Ar     2.45877951     5.04253866     1.13982723
Ar     1.90528377     3.18427293     1.28359297
Ar     5.14722388     4.34798353     1.75281992
Ar     1.92646872     2.92013861     5.45674815
Ar     7.87116794     6.50320551     3.82621384
Ar     4.25883675     8.79834507     6.31279466
Ar     2.50706117     9.13458230     4.23876114
Ar     3.68278854     9.10425143     5.43818047
Ar     9.38042654     5.94600785     3.23195746
Ar     6.95316083     8.95713208     6.39206984

10
Energies (in J/mol): KE=   2.181486E-09, PE=  -2.608772E-04, TE=  -2.608750E-04, Step=   250, Time=          0.250 fs
Ar     2.45877951     5.04253866     1.13982723
Ar     1.90528377     3.18427294     1.28359297
Ar     5.14722388     4.34798353     1.75281992
Ar     1.92646872     2.92013861     5.45674815
Ar     7.87116795     6.50320551     3.82621384
Ar     4.25883671     8.79834510     6.31279460
Ar     2.50706117     9.13458230     4.23876114
Ar     3.68278858     9.10425141     5.43818052
Ar     9.38042653     5.94600785     3.23195746
Ar     6.95316083     8.95713208     6.39206984

10
Energies (in J/mol): KE=   2.359480E-09, PE=  -2.608773E-04, TE=  -2.608750E-04, Step=   260, Time=          0.260 fs
Ar     2.45877951     5.04253865     1.13982723
Ar     1.90528377     3.18427294     1.28359297
Ar     5.14722388     4.34798353     1.75281992
Ar     1.92646872     2.92013861     5.45674815
Ar     7.87116795     6.50320551     3.82621384
Ar     4.25883667     8.79834512     6.31279454
Ar     2.50706118     9.13458230     4.23876115
Ar     3.68278861     9.10425138     5.43818058
Ar     9.38042653     5.94600786     3.23195746
Ar     6.95316083     8.95713208     6.39206984

10
Energies (in J/mol): KE=   2.544454E-09, PE=  -2.608775E-04, TE=  -2.608750E-04, Step=   270, Time=          0.270 fs
Ar     2.45877951     5.04253865     1.13982723
Ar     1.90528377     3.18427294     1.28359297
Ar     5.14722388     4.34798353     1.75281992
Ar     1.92646872     2.92013861     5.45674815
Ar     7.87116795     6.50320551     3.82621383
Ar     4.25883663     8.79834514     6.31279448
Ar     2.50706118     9.13458230     4.23876115
Ar     3.68278865     9.10425136     5.43818064
Ar     9.38042653     5.94600786     3.23195747
Ar     6.95316083     8.95713208     6.39206984

10
Energies (in J/mol): KE=   2.736407E-09, PE=  -2.608777E-04, TE=  -2.608750E-04, Step=   280, Time=          0.280 fs
Ar     2.45877951     5.04253865     1.13982723
Ar     1.90528377     3.18427294     1.28359297
Ar     5.14722388     4.34798353     1.75281992
Ar     1.92646872     2.92013861     5.45674815
Ar     7.87116796     6.50320550     3.82621383
Ar     4.25883659     8.79834516     6.31279441
Ar     2.50706118     9.13458230     4.23876115
Ar     3.68278869     9.10425134     5.43818071
Ar     9.38042653     5.94600786     3.23195747
Ar     6.95316083     8.95713208     6.39206984

10
Energies (in J/mol): KE=   2.935341E-09, PE=  -2.608779E-04, TE=  -2.608750E-04, Step=   290, Time=          0.290 fs
Ar     2.45877951     5.04253865     1.13982723
Ar     1.90528377     3.18427294     1.28359297
Ar     5.14722388     4.34798353     1.75281992
Ar     1.92646872     2.92013861     5.45674815
Ar     7.87116796     6.50320550     3.82621383
Ar     4.25883654     8.79834519     6.31279434
Ar     2.50706119     9.13458230     4.23876116
Ar     3.68278874     9.10425131     5.43818077
Ar     9.38042652     5.94600786     3.23195747
Ar     6.95316083     8.95713208     6.39206984

10
Energies (in J/mol): KE=   3.141254E-09, PE=  -2.608781E-04, TE=  -2.608750E-04, Step=   300, Time=          0.300 fs
Ar     2.45877951     5.04253865     1.13982723
Ar     1.90528377     3.18427294     1.28359297
Ar     5.14722388     4.34798353     1.75281992
Ar     1.92646872     2.92013861     5.45674815
Ar     7.87116796     6.50320550     3.82621383
Ar     4.25883649     8.79834521     6.31279427
Ar     2.50706119     9.13458230     4.23876116
Ar     3.68278878     9.10425129     5.43818084
Ar     9.38042652     5.94600786     3.23195747
Ar     6.95316083     8.95713208     6.39206984

10
Energies (in J/mol): KE=   3.354147E-09, PE=  -2.608783E-04, TE=  -2.608750E-04, Step=   310, Time=          0.310 fs
Ar     2.45877951     5.04253865     1.13982723
Ar     1.90528377     3.18427294     1.28359297
Ar     5.14722388     4.34798353     1.75281992
Ar     1.92646872     2.92013861     5.45674815
Ar     7.87116797     6.50320550     3.82621383
Ar     4.25883645     8.79834524     6.31279420
Ar     2.50706119     9.13458230     4.23876116
Ar     3.68278883     9.10425126     5.43818091
Ar     9.38042652     5.94600786     3.23195747
Ar     6.95316083     8.95713208     6.39206984

10
Energies (in J/mol): KE=   3.574020E-09, PE=  -2.608786E-04, TE=  -2.608750E-04, Step=   320, Time=          0.320 fs
Ar     2.45877950     5.04253865     1.13982723
Ar     1.90528377     3.18427295     1.28359297
Ar     5.14722388     4.34798353     1.75281992
Ar     1.92646872     2.92013861     5.45674815
Ar     7.87116797     6.50320550     3.82621383
Ar     4.25883640     8.79834526     6.31279412
Ar     2.50706120     9.13458230     4.23876117
Ar     3.68278887     9.10425124     5.43818098
Ar     9.38042651     5.94600786     3.23195747
Ar     6.95316083     8.95713208     6.39206984

10
Energies (in J/mol): KE=   3.800873E-09, PE=  -2.608788E-04, TE=  -2.608750E-04, Step=   330, Time=          0.330 fs
Ar     2.45877950     5.04253864     1.13982723
Ar     1.90528377     3.18427295     1.28359297
Ar     5.14722388     4.34798353     1.75281992
Ar     1.92646872     2.92013861     5.45674815
Ar     7.87116797     6.50320550     3.82621383
Ar     4.25883634     8.79834529     6.31279404
Ar     2.50706120     9.13458230     4.23876117
Ar     3.68278892     9.10425121     5.43818106
Ar     9.38042651     5.94600786     3.23195747
Ar     6.95316083     8.95713208     6.39206984

10
Energies (in J/mol): KE=   4.034706E-09, PE=  -2.608790E-04, TE=  -2.608750E-04, Step=   340, Time=          0.340 fs
Ar     2.45877950     5.04253864     1.13982723
Ar     1.90528377     3.18427295     1.28359297
Ar     5.14722388     4.34798353     1.75281992
Ar     1.92646872     2.92013861     5.45674815
Ar     7.87116798     6.50320550     3.82621383
Ar     4.25883629     8.79834532     6.31279396
Ar     2.50706120     9.13458230     4.23876117
Ar     3.68278897     9.10425118     5.43818114
Ar     9.38042651     5.94600787     3.23195747
Ar     6.95316083     8.95713208     6.39206984

10
Energies (in J/mol): KE=   4.275519E-09, PE=  -2.608793E-04, TE=  -2.608750E-04, Step=   350, Time=          0.350 fs
Ar     2.45877950     5.04253864     1.13982723
Ar     1.90528377     3.18427295     1.28359297
Ar     5.14722388     4.34798353     1.75281992
Ar     1.92646872     2.92013861     5.45674815
Ar     7.87116798     6.50320550     3.82621382
Ar     4.25883624     8.79834535     6.31279388
Ar     2.50706121     9.13458230     4.23876118
Ar     3.68278902     9.10425115     5.43818122
Ar     9.38042650     5.94600787     3.23195748
Ar     6.95316083     8.95713208     6.39206984

10
Energies (in J/mol): KE=   4.523313E-09, PE=  -2.608795E-04, TE=  -2.608750E-04, Step=   360, Time=          0.360 fs
Ar     2.45877950     5.04253864     1.13982723
Ar     1.90528377     3.18427295     1.28359297
Ar     5.14722388     4.34798353     1.75281992
Ar     1.92646872     2.92013861     5.45674815
Ar     7.87116798     6.50320549     3.82621382
Ar     4.25883618     8.79834538     6.31279379
Ar     2.50706121     9.13458230     4.23876118
Ar     3.68278908     9.10425112     5.43818130
Ar     9.38042650     5.94600787     3.23195748
Ar     6.95316083     8.95713208     6.39206984

10
Energies (in J/mol): KE=   4.778086E-09, PE=  -2.608798E-04, TE=  -2.608750E-04, Step=   370, Time=          0.370 fs
Ar     2.45877950     5.04253864     1.13982723
Ar     1.90528377     3.18427295     1.28359297
Ar     5.14722388     4.34798353     1.75281992
Ar     1.92646872     2.92013861     5.45674815
Ar     7.87116799     6.50320549     3.82621382
Ar     4.25883612     8.79834541     6.31279370
Ar     2.50706121     9.13458230     4.23876119
Ar     3.68278913     9.10425109     5.43818138
Ar     9.38042649     5.94600787     3.23195748
Ar     6.95316083     8.95713208     6.39206984

10
Energies (in J/mol): KE=   5.039839E-09, PE=  -2.608800E-04, TE=  -2.608750E-04, Step=   380, Time=          0.380 fs
Ar     2.45877950     5.04253863     1.13982723
Ar     1.90528377     3.18427296     1.28359297
Ar     5.14722388     4.34798353     1.75281992
Ar     1.92646872     2.92013861     5.45674815
Ar     7.87116799     6.50320549     3.82621382
Ar     4.25883606     8.79834544     6.31279361
Ar     2.50706122     9.13458230     4.23876119
Ar     3.68278919     9.10425106     5.43818147
Ar     9.38042649     5.94600787     3.23195748
Ar     6.95316083     8.95713208     6.39206984

10
Energies (in J/mol): KE=   5.308573E-09, PE=  -2.608803E-04, TE=  -2.608750E-04, Step=   390, Time=          0.390 fs
Ar     2.45877950     5.04253863     1.13982723
Ar     1.90528377     3.18427296     1.28359297
Ar     5.14722388     4.34798353     1.75281992
Ar     1.92646872     2.92013861     5.45674815
Ar     7.87116800     6.50320549     3.82621382
Ar     4.25883600     8.79834548     6.31279352
Ar     2.50706122     9.13458230     4.23876119
Ar     3.68278924     9.10425103     5.43818156
Ar     9.38042648     5.94600787     3.23195748
Ar     6.95316083     8.95713208     6.39206984

10
Energies (in J/mol): KE=   5.584287E-09, PE=  -2.608806E-04, TE=  -2.608750E-04, Step=   400, Time=          0.400 fs
Ar     2.45877950     5.04253863     1.13982723
Ar     1.90528377     3.18427296     1.28359297
Ar     5.14722388     4.34798353     1.75281992
Ar     1.92646872     2.92013861     5.45674815
Ar     7.87116800     6.50320549     3.82621382
Ar     4.25883594     8.79834551     6.31279342
Ar     2.50706123     9.13458230     4.23876120
Ar     3.68278930     9.10425099     5.43818165
Ar     9.38042648     5.94600788     3.23195748
Ar     6.95316082     8.95713208     6.39206984

10
Energies (in J/mol): KE=   5.866981E-09, PE=  -2.608808E-04, TE=  -2.608750E-04, Step=   410, Time=          0.410 fs
Ar     2.45877950     5.04253863     1.13982723
Ar     1.90528378     3.18427296     1.28359297
Ar     5.14722388     4.34798353     1.75281992
Ar     1.92646872     2.92013861     5.45674815
Ar     7.87116801     6.50320549     3.82621381
Ar     4.25883587     8.79834554     6.31279332
Ar     2.50706123     9.13458230     4.23876120
Ar     3.68278936     9.10425096     5.43818174
Ar     9.38042648     5.94600788     3.23195749
Ar     6.95316082     8.95713208     6.39206984

10
Energies (in J/mol): KE=   6.156655E-09, PE=  -2.608811E-04, TE=  -2.608750E-04, Step=   420, Time=          0.420 fs
Ar     2.45877950     5.04253863     1.13982723
Ar     1.90528378     3.18427296     1.28359297
Ar     5.14722387     4.34798353     1.75281992
Ar     1.92646872     2.92013861     5.45674815
Ar     7.87116801     6.50320548     3.82621381
Ar     4.25883581     8.79834558     6.31279322
Ar     2.50706123     9.13458230     4.23876121
Ar     3.68278942     9.10425093     5.43818184
Ar     9.38042647     5.94600788     3.23195749
Ar     6.95316082     8.95713208     6.39206984

10
Energies (in J/mol): KE=   6.453310E-09, PE=  -2.608814E-04, TE=  -2.608750E-04, Step=   430, Time=          0.430 fs
Ar     2.45877950     5.04253862     1.13982723
Ar     1.90528378     3.18427297     1.28359297
Ar     5.14722387     4.34798353     1.75281992
Ar     1.92646872     2.92013861     5.45674815
Ar     7.87116802     6.50320548     3.82621381
Ar     4.25883574     8.79834561     6.31279312
Ar     2.50706124     9.13458230     4.23876121
Ar     3.68278949     9.10425089     5.43818194
Ar     9.38042647     5.94600788     3.23195749
Ar     6.95316082     8.95713208     6.39206984

10
Energies (in J/mol): KE=   6.756946E-09, PE=  -2.608817E-04, TE=  -2.608750E-04, Step=   440, Time=          0.440 fs
Ar     2.45877950     5.04253862     1.13982723
Ar     1.90528378     3.18427297     1.28359297
Ar     5.14722387     4.34798353     1.75281992
Ar     1.92646872     2.92013861     5.45674815
Ar     7.87116802     6.50320548     3.82621381
Ar     4.25883567     8.79834565     6.31279301
Ar     2.50706124     9.13458230     4.23876122
Ar     3.68278955     9.10425085     5.43818204
Ar     9.38042646     5.94600788     3.23195749
Ar     6.95316082     8.95713208     6.39206984

10
Energies (in J/mol): KE=   7.067561E-09, PE=  -2.608820E-04, TE=  -2.608750E-04, Step=   450, Time=          0.450 fs
Ar     2.45877950     5.04253862     1.13982723
Ar     1.90528378     3.18427297     1.28359297
Ar     5.14722387     4.34798353     1.75281992
Ar     1.92646872     2.92013861     5.45674815
Ar     7.87116803     6.50320548     3.82621381
Ar     4.25883560     8.79834569     6.31279291
Ar     2.50706125     9.13458230     4.23876122
Ar     3.68278962     9.10425082     5.43818214
Ar     9.38042646     5.94600788     3.23195749
Ar     6.95316082     8.95713208     6.39206984

10
Energies (in J/mol): KE=   7.385158E-09, PE=  -2.608824E-04, TE=  -2.608750E-04, Step=   460, Time=          0.460 fs
Ar     2.45877950     5.04253862     1.13982723
Ar     1.90528378     3.18427297     1.28359297
Ar     5.14722387     4.34798353     1.75281992
Ar     1.92646872     2.92013861     5.45674815
Ar     7.87116803     6.50320548     3.82621380
Ar     4.25883553     8.79834573     6.31279280
Ar     2.50706125     9.13458230     4.23876123
Ar     3.68278969     9.10425078     5.43818225
Ar     9.38042645     5.94600789     3.23195750
Ar     6.95316082     8.95713208     6.39206984

10
Energies (in J/mol): KE=   7.709734E-09, PE=  -2.608827E-04, TE=  -2.608750E-04, Step=   470, Time=          0.470 fs
Ar     2.45877950     5.04253862     1.13982723
Ar     1.90528378     3.18427298     1.28359297
Ar     5.14722387     4.34798353     1.75281992
Ar     1.92646872     2.92013861     5.45674815
Ar     7.87116804     6.50320548     3.82621380
Ar     4.25883545     8.79834577     6.31279268
Ar     2.50706126     9.13458230     4.23876123
Ar     3.68278976     9.10425074     5.43818236
Ar     9.38042645     5.94600789     3.23195750
Ar     6.95316082     8.95713208     6.39206984

10
Energies (in J/mol): KE=   8.041292E-09, PE=  -2.608830E-04, TE=  -2.608750E-04, Step=   480, Time=          0.480 fs
Ar     2.45877950     5.04253861     1.13982723
Ar     1.90528378     3.18427298     1.28359297
Ar     5.14722387     4.34798353     1.75281992
Ar     1.92646872     2.92013861     5.45674815
Ar     7.87116804     6.50320547     3.82621380
Ar     4.25883538     8.79834581     6.31279257
Ar     2.50706126     9.13458229     4.23876124
Ar     3.68278983     9.10425070     5.43818247
Ar     9.38042644     5.94600789     3.23195750
Ar     6.95316082     8.95713208     6.39206984

10
Energies (in J/mol): KE=   8.379830E-09, PE=  -2.608834E-04, TE=  -2.608750E-04, Step=   490, Time=          0.490 fs
Ar     2.45877950     5.04253861     1.13982723
Ar     1.90528378     3.18427298     1.28359297
Ar     5.14722387     4.34798353     1.75281992
Ar     1.92646872     2.92013861     5.45674815
Ar     7.87116805     6.50320547     3.82621380
Ar     4.25883530     8.79834585     6.31279245
Ar     2.50706127     9.13458229     4.23876124
Ar     3.68278990     9.10425066     5.43818258
Ar     9.38042644     5.94600789     3.23195750
Ar     6.95316082     8.95713208     6.39206984

10
Energies (in J/mol): KE=   8.725349E-09, PE=  -2.608837E-04, TE=  -2.608750E-04, Step=   500, Time=          0.500 fs
Ar     2.45877950     5.04253861     1.13982723
Ar     1.90528378     3.18427298     1.28359297
Ar     5.14722387     4.34798353     1.75281992
Ar     1.92646872     2.92013861     5.45674815
Ar     7.87116805     6.50320547     3.82621380
Ar     4.25883522     8.79834589     6.31279233
Ar     2.50706127     9.13458229     4.23876125