           2
 Step           10 : KE=   6.9025072743138201E-310 , PE=   0.0000000000000000      , TE=   0.0000000000000000     
 Ar   2.4859712597389598        2.8457538618735589        1.1922329701096235     
 Ar   1.9008228302610424        7.0454959881264410        1.4379635798903765     
           2
 Step           20 : KE=   6.9025072743138201E-310 , PE=   0.0000000000000000      , TE=   0.0000000000000000     
 Ar   2.4859712594779197        2.8457538637471180        1.1922329702192469     
 Ar   1.9008228305220847        7.0454959862528819        1.4379635797807531     
           2
 Step           30 : KE=   6.9025072743138201E-310 , PE=   0.0000000000000000      , TE=   0.0000000000000000     
 Ar   2.4859712592168797        2.8457538656206771        1.1922329703288703     
 Ar   1.9008228307831270        7.0454959843793228        1.4379635796711296     
           2
 Step           40 : KE=   6.9025072743138201E-310 , PE=   0.0000000000000000      , TE=   0.0000000000000000     
 Ar   2.4859712589558396        2.8457538674942362        1.1922329704384937     
 Ar   1.9008228310441693        7.0454959825057637        1.4379635795615062     
           2
 Step           50 : KE=   6.9025072743138201E-310 , PE=   0.0000000000000000      , TE=   0.0000000000000000     
 Ar   2.4859712586947995        2.8457538693677953        1.1922329705481172     
 Ar   1.9008228313052116        7.0454959806322046        1.4379635794518828     
           2
 Step           60 : KE=   6.9025072743138201E-310 , PE=   0.0000000000000000      , TE=   0.0000000000000000     
 Ar   2.4859712584337594        2.8457538712413544        1.1922329706577406     
 Ar   1.9008228315662539        7.0454959787586455        1.4379635793422594     
           2
 Step           70 : KE=   6.9025072743138201E-310 , PE=   0.0000000000000000      , TE=   0.0000000000000000     
 Ar   2.4859712581727194        2.8457538731149135        1.1922329707673640     
 Ar   1.9008228318272962        7.0454959768850864        1.4379635792326360     
           2
 Step           80 : KE=   6.9025072743138201E-310 , PE=   0.0000000000000000      , TE=   0.0000000000000000     
 Ar   2.4859712579116793        2.8457538749884725        1.1922329708769874     
 Ar   1.9008228320883385        7.0454959750115274        1.4379635791230125     
           2
 Step           90 : KE=   6.9025072743138201E-310 , PE=   0.0000000000000000      , TE=   0.0000000000000000     
 Ar   2.4859712576506392        2.8457538768620316        1.1922329709866109     
 Ar   1.9008228323493808        7.0454959731379683        1.4379635790133891     
           2
 Step          100 : KE=   6.9025072743138201E-310 , PE=   0.0000000000000000      , TE=   0.0000000000000000     
 Ar   2.4859712573895991        2.8457538787355907        1.1922329710962343     
 Ar   1.9008228326104231        7.0454959712644092        1.4379635789037657     
           2
 Step          110 : KE=   6.9025072743138201E-310 , PE=   0.0000000000000000      , TE=   0.0000000000000000     
 Ar   2.4859712571285590        2.8457538806091498        1.1922329712058577     
 Ar   1.9008228328714654        7.0454959693908501        1.4379635787941423     
           2
 Step          120 : KE=   6.9025072743138201E-310 , PE=   0.0000000000000000      , TE=   0.0000000000000000     
 Ar   2.4859712568675190        2.8457538824827089        1.1922329713154811     
 Ar   1.9008228331325077        7.0454959675172910        1.4379635786845189     
           2
 Step          130 : KE=   6.9025072743138201E-310 , PE=   0.0000000000000000      , TE=   0.0000000000000000     
 Ar   2.4859712566064789        2.8457538843562680        1.1922329714251045     
 Ar   1.9008228333935500        7.0454959656437319        1.4379635785748954     
           2
 Step          140 : KE=   6.9025072743138201E-310 , PE=   0.0000000000000000      , TE=   0.0000000000000000     
 Ar   2.4859712563454388        2.8457538862298271        1.1922329715347280     
 Ar   1.9008228336545923        7.0454959637701728        1.4379635784652720     
           2
 Step          150 : KE=   6.9025072743138201E-310 , PE=   0.0000000000000000      , TE=   0.0000000000000000     
 Ar   2.4859712560843987        2.8457538881033861        1.1922329716443514     
 Ar   1.9008228339156346        7.0454959618966138        1.4379635783556486     
           2
 Step          160 : KE=   6.9025072743138201E-310 , PE=   0.0000000000000000      , TE=   0.0000000000000000     
 Ar   2.4859712558233586        2.8457538899769452        1.1922329717539748     
 Ar   1.9008228341766769        7.0454959600230547        1.4379635782460252     
           2
 Step          170 : KE=   6.9025072743138201E-310 , PE=   0.0000000000000000      , TE=   0.0000000000000000     
 Ar   2.4859712555623186        2.8457538918505043        1.1922329718635982     
 Ar   1.9008228344377192        7.0454959581494956        1.4379635781364017     
           2
 Step          180 : KE=   6.9025072743138201E-310 , PE=   0.0000000000000000      , TE=   0.0000000000000000     
 Ar   2.4859712553012785        2.8457538937240634        1.1922329719732216     
 Ar   1.9008228346987615        7.0454959562759365        1.4379635780267783     
           2
 Step          190 : KE=   6.9025072743138201E-310 , PE=   0.0000000000000000      , TE=   0.0000000000000000     
 Ar   2.4859712550402384        2.8457538955976225        1.1922329720828451     
 Ar   1.9008228349598038        7.0454959544023774        1.4379635779171549     
           2
 Step          200 : KE=   6.9025072743138201E-310 , PE=   0.0000000000000000      , TE=   0.0000000000000000     
 Ar   2.4859712547791983        2.8457538974711816        1.1922329721924685     
 Ar   1.9008228352208461        7.0454959525288183        1.4379635778075315     
           2
 Step          210 : KE=   6.9025072743138201E-310 , PE=   0.0000000000000000      , TE=   0.0000000000000000     
 Ar   2.4859712545181583        2.8457538993447407        1.1922329723020919     
 Ar   1.9008228354818884        7.0454959506552592        1.4379635776979081     
           2
 Step          220 : KE=   6.9025072743138201E-310 , PE=   0.0000000000000000      , TE=   0.0000000000000000     
 Ar   2.4859712542571182        2.8457539012182997        1.1922329724117153     
 Ar   1.9008228357429306        7.0454959487817002        1.4379635775882846     
           2
 Step          230 : KE=   6.9025072743138201E-310 , PE=   0.0000000000000000      , TE=   0.0000000000000000     
 Ar   2.4859712539960781        2.8457539030918588        1.1922329725213388     
 Ar   1.9008228360039729        7.0454959469081411        1.4379635774786612     
           2
 Step          240 : KE=   6.9025072743138201E-310 , PE=   0.0000000000000000      , TE=   0.0000000000000000     
 Ar   2.4859712537350380        2.8457539049654179        1.1922329726309622     
 Ar   1.9008228362650152        7.0454959450345820        1.4379635773690378     
           2
 Step          250 : KE=   6.9025072743138201E-310 , PE=   0.0000000000000000      , TE=   0.0000000000000000     
 Ar   2.4859712534739979        2.8457539068389770        1.1922329727405856     
 Ar   1.9008228365260575        7.0454959431610229        1.4379635772594144     
           2
 Step          260 : KE=   6.9025072743138201E-310 , PE=   0.0000000000000000      , TE=   0.0000000000000000     
 Ar   2.4859712532129579        2.8457539087125361        1.1922329728502090     
 Ar   1.9008228367870998        7.0454959412874638        1.4379635771497910     
           2
 Step          270 : KE=   6.9025072743138201E-310 , PE=   0.0000000000000000      , TE=   0.0000000000000000     
 Ar   2.4859712529519178        2.8457539105860952        1.1922329729598324     
 Ar   1.9008228370481421        7.0454959394139047        1.4379635770401675     
           2
 Step          280 : KE=   6.9025072743138201E-310 , PE=   0.0000000000000000      , TE=   0.0000000000000000     
 Ar   2.4859712526908777        2.8457539124596543        1.1922329730694559     
 Ar   1.9008228373091844        7.0454959375403456        1.4379635769305441     
           2
 Step          290 : KE=   6.9025072743138201E-310 , PE=   0.0000000000000000      , TE=   0.0000000000000000     
 Ar   2.4859712524298376        2.8457539143332133        1.1922329731790793     
 Ar   1.9008228375702267        7.0454959356667866        1.4379635768209207     
           2
 Step          300 : KE=   6.9025072743138201E-310 , PE=   0.0000000000000000      , TE=   0.0000000000000000     
 Ar   2.4859712521687976        2.8457539162067724        1.1922329732887027     
 Ar   1.9008228378312690        7.0454959337932275        1.4379635767112973     
           2
 Step          310 : KE=   6.9025072743138201E-310 , PE=   0.0000000000000000      , TE=   0.0000000000000000     
 Ar   2.4859712519077575        2.8457539180803315        1.1922329733983261     
 Ar   1.9008228380923113        7.0454959319196684        1.4379635766016738     
           2
 Step          320 : KE=   6.9025072743138201E-310 , PE=   0.0000000000000000      , TE=   0.0000000000000000     
 Ar   2.4859712516467174        2.8457539199538906        1.1922329735079495     
 Ar   1.9008228383533536        7.0454959300461093        1.4379635764920504     
           2
 Step          330 : KE=   6.9025072743138201E-310 , PE=   0.0000000000000000      , TE=   0.0000000000000000     
 Ar   2.4859712513856773        2.8457539218274497        1.1922329736175730     
 Ar   1.9008228386143959        7.0454959281725502        1.4379635763824270     
           2
 Step          340 : KE=   6.9025072743138201E-310 , PE=   0.0000000000000000      , TE=   0.0000000000000000     
 Ar   2.4859712511246372        2.8457539237010088        1.1922329737271964     
 Ar   1.9008228388754382        7.0454959262989911        1.4379635762728036     
           2
 Step          350 : KE=   6.9025072743138201E-310 , PE=   0.0000000000000000      , TE=   0.0000000000000000     
 Ar   2.4859712508635972        2.8457539255745679        1.1922329738368198     
 Ar   1.9008228391364805        7.0454959244254320        1.4379635761631802     
           2
 Step          360 : KE=   6.9025072743138201E-310 , PE=   0.0000000000000000      , TE=   0.0000000000000000     
 Ar   2.4859712506025571        2.8457539274481269        1.1922329739464432     
 Ar   1.9008228393975228        7.0454959225518730        1.4379635760535567     
           2
 Step          370 : KE=   6.9025072743138201E-310 , PE=   0.0000000000000000      , TE=   0.0000000000000000     
 Ar   2.4859712503415170        2.8457539293216860        1.1922329740560667     
 Ar   1.9008228396585651        7.0454959206783139        1.4379635759439333     
           2
 Step          380 : KE=   6.9025072743138201E-310 , PE=   0.0000000000000000      , TE=   0.0000000000000000     
 Ar   2.4859712500804769        2.8457539311952451        1.1922329741656901     
 Ar   1.9008228399196074        7.0454959188047548        1.4379635758343099     
           2
 Step          390 : KE=   6.9025072743138201E-310 , PE=   0.0000000000000000      , TE=   0.0000000000000000     
 Ar   2.4859712498194368        2.8457539330688042        1.1922329742753135     
 Ar   1.9008228401806497        7.0454959169311957        1.4379635757246865     
           2
 Step          400 : KE=   6.9025072743138201E-310 , PE=   0.0000000000000000      , TE=   0.0000000000000000     
 Ar   2.4859712495583968        2.8457539349423633        1.1922329743849369     
 Ar   1.9008228404416920        7.0454959150576366        1.4379635756150630     
           2
 Step          410 : KE=   6.9025072743138201E-310 , PE=   0.0000000000000000      , TE=   0.0000000000000000     
 Ar   2.4859712492973567        2.8457539368159224        1.1922329744945603     
 Ar   1.9008228407027343        7.0454959131840775        1.4379635755054396     
           2
 Step          420 : KE=   6.9025072743138201E-310 , PE=   0.0000000000000000      , TE=   0.0000000000000000     
 Ar   2.4859712490363166        2.8457539386894815        1.1922329746041838     
 Ar   1.9008228409637766        7.0454959113105184        1.4379635753958162     
           2
 Step          430 : KE=   6.9025072743138201E-310 , PE=   0.0000000000000000      , TE=   0.0000000000000000     
 Ar   2.4859712487752765        2.8457539405630405        1.1922329747138072     
 Ar   1.9008228412248189        7.0454959094369594        1.4379635752861928     
           2
 Step          440 : KE=   6.9025072743138201E-310 , PE=   0.0000000000000000      , TE=   0.0000000000000000     
 Ar   2.4859712485142365        2.8457539424365996        1.1922329748234306     
 Ar   1.9008228414858612        7.0454959075634003        1.4379635751765694     
           2
 Step          450 : KE=   6.9025072743138201E-310 , PE=   0.0000000000000000      , TE=   0.0000000000000000     
 Ar   2.4859712482531964        2.8457539443101587        1.1922329749330540     
 Ar   1.9008228417469035        7.0454959056898412        1.4379635750669459     
           2
 Step          460 : KE=   6.9025072743138201E-310 , PE=   0.0000000000000000      , TE=   0.0000000000000000     
 Ar   2.4859712479921563        2.8457539461837178        1.1922329750426774     
 Ar   1.9008228420079458        7.0454959038162821        1.4379635749573225     
           2
 Step          470 : KE=   6.9025072743138201E-310 , PE=   0.0000000000000000      , TE=   0.0000000000000000     
 Ar   2.4859712477311162        2.8457539480572769        1.1922329751523009     
 Ar   1.9008228422689881        7.0454959019427230        1.4379635748476991     
           2
 Step          480 : KE=   6.9025072743138201E-310 , PE=   0.0000000000000000      , TE=   0.0000000000000000     
 Ar   2.4859712474700761        2.8457539499308360        1.1922329752619243     
 Ar   1.9008228425300304        7.0454959000691639        1.4379635747380757     
           2
 Step          490 : KE=   6.9025072743138201E-310 , PE=   0.0000000000000000      , TE=   0.0000000000000000     
 Ar   2.4859712472090361        2.8457539518043951        1.1922329753715477     
 Ar   1.9008228427910727        7.0454958981956048        1.4379635746284523     
           2
 Step          500 : KE=   6.9025072743138201E-310 , PE=   0.0000000000000000      , TE=   0.0000000000000000     
 Ar   2.4859712469479960        2.8457539536779541        1.1922329754811711     
 Ar   1.9008228430521150        7.0454958963220458        1.4379635745188288     
           2
 Step          510 : KE=   6.9025072743138201E-310 , PE=   0.0000000000000000      , TE=   0.0000000000000000     
 Ar   2.4859712466869559        2.8457539555515132        1.1922329755907946     
 Ar   1.9008228433131573        7.0454958944484867        1.4379635744092054     
           2
 Step          520 : KE=   6.9025072743138201E-310 , PE=   0.0000000000000000      , TE=   0.0000000000000000     
 Ar   2.4859712464259158        2.8457539574250723        1.1922329757004180     
 Ar   1.9008228435741996        7.0454958925749276        1.4379635742995820     
           2
 Step          530 : KE=   6.9025072743138201E-310 , PE=   0.0000000000000000      , TE=   0.0000000000000000     
 Ar   2.4859712461648757        2.8457539592986314        1.1922329758100414     
 Ar   1.9008228438352419        7.0454958907013685        1.4379635741899586     
           2
 Step          540 : KE=   6.9025072743138201E-310 , PE=   0.0000000000000000      , TE=   0.0000000000000000     
 Ar   2.4859712459038357        2.8457539611721905        1.1922329759196648     
 Ar   1.9008228440962842        7.0454958888278094        1.4379635740803351     
           2
 Step          550 : KE=   6.9025072743138201E-310 , PE=   0.0000000000000000      , TE=   0.0000000000000000     
 Ar   2.4859712456427956        2.8457539630457496        1.1922329760292882     
 Ar   1.9008228443573265        7.0454958869542503        1.4379635739707117     
           2
 Step          560 : KE=   6.9025072743138201E-310 , PE=   0.0000000000000000      , TE=   0.0000000000000000     
 Ar   2.4859712453817555        2.8457539649193087        1.1922329761389117     
 Ar   1.9008228446183688        7.0454958850806912        1.4379635738610883     
           2
 Step          570 : KE=   6.9025072743138201E-310 , PE=   0.0000000000000000      , TE=   0.0000000000000000     
 Ar   2.4859712451207154        2.8457539667928677        1.1922329762485351     
 Ar   1.9008228448794111        7.0454958832071322        1.4379635737514649     
           2
 Step          580 : KE=   6.9025072743138201E-310 , PE=   0.0000000000000000      , TE=   0.0000000000000000     
 Ar   2.4859712448596754        2.8457539686664268        1.1922329763581585     
 Ar   1.9008228451404534        7.0454958813335731        1.4379635736418415     
           2
 Step          590 : KE=   6.9025072743138201E-310 , PE=   0.0000000000000000      , TE=   0.0000000000000000     
 Ar   2.4859712445986353        2.8457539705399859        1.1922329764677819     
 Ar   1.9008228454014957        7.0454958794600140        1.4379635735322180     
           2
 Step          600 : KE=   6.9025072743138201E-310 , PE=   0.0000000000000000      , TE=   0.0000000000000000     
 Ar   2.4859712443375952        2.8457539724135450        1.1922329765774053     
 Ar   1.9008228456625380        7.0454958775864549        1.4379635734225946     
           2
 Step          610 : KE=   6.9025072743138201E-310 , PE=   0.0000000000000000      , TE=   0.0000000000000000     
 Ar   2.4859712440765551        2.8457539742871041        1.1922329766870288     
 Ar   1.9008228459235803        7.0454958757128958        1.4379635733129712     
           2
 Step          620 : KE=   6.9025072743138201E-310 , PE=   0.0000000000000000      , TE=   0.0000000000000000     
 Ar   2.4859712438155150        2.8457539761606632        1.1922329767966522     
 Ar   1.9008228461846226        7.0454958738393367        1.4379635732033478     
           2
 Step          630 : KE=   6.9025072743138201E-310 , PE=   0.0000000000000000      , TE=   0.0000000000000000     
 Ar   2.4859712435544750        2.8457539780342223        1.1922329769062756     
 Ar   1.9008228464456649        7.0454958719657776        1.4379635730937244     
           2
 Step          640 : KE=   6.9025072743138201E-310 , PE=   0.0000000000000000      , TE=   0.0000000000000000     
 Ar   2.4859712432934349        2.8457539799077813        1.1922329770158990     
 Ar   1.9008228467067072        7.0454958700922186        1.4379635729841009     
           2
 Step          650 : KE=   6.9025072743138201E-310 , PE=   0.0000000000000000      , TE=   0.0000000000000000     
 Ar   2.4859712430323948        2.8457539817813404        1.1922329771255225     
 Ar   1.9008228469677495        7.0454958682186595        1.4379635728744775     
           2
 Step          660 : KE=   6.9025072743138201E-310 , PE=   0.0000000000000000      , TE=   0.0000000000000000     
 Ar   2.4859712427713547        2.8457539836548995        1.1922329772351459     
 Ar   1.9008228472287918        7.0454958663451004        1.4379635727648541     
           2
 Step          670 : KE=   6.9025072743138201E-310 , PE=   0.0000000000000000      , TE=   0.0000000000000000     
 Ar   2.4859712425103146        2.8457539855284586        1.1922329773447693     
 Ar   1.9008228474898341        7.0454958644715413        1.4379635726552307     
           2
 Step          680 : KE=   6.9025072743138201E-310 , PE=   0.0000000000000000      , TE=   0.0000000000000000     
 Ar   2.4859712422492746        2.8457539874020177        1.1922329774543927     
 Ar   1.9008228477508764        7.0454958625979822        1.4379635725456072     
           2
 Step          690 : KE=   6.9025072743138201E-310 , PE=   0.0000000000000000      , TE=   0.0000000000000000     
 Ar   2.4859712419882345        2.8457539892755768        1.1922329775640161     
 Ar   1.9008228480119187        7.0454958607244231        1.4379635724359838     
           2
 Step          700 : KE=   6.9025072743138201E-310 , PE=   0.0000000000000000      , TE=   0.0000000000000000     
 Ar   2.4859712417271944        2.8457539911491359        1.1922329776736396     
 Ar   1.9008228482729610        7.0454958588508640        1.4379635723263604     
           2
 Step          710 : KE=   6.9025072743138201E-310 , PE=   0.0000000000000000      , TE=   0.0000000000000000     
 Ar   2.4859712414661543        2.8457539930226949        1.1922329777832630     
 Ar   1.9008228485340033        7.0454958569773050        1.4379635722167370     
           2
 Step          720 : KE=   6.9025072743138201E-310 , PE=   0.0000000000000000      , TE=   0.0000000000000000     
 Ar   2.4859712412051143        2.8457539948962540        1.1922329778928864     
 Ar   1.9008228487950456        7.0454958551037459        1.4379635721071136     
           2
 Step          730 : KE=   6.9025072743138201E-310 , PE=   0.0000000000000000      , TE=   0.0000000000000000     
 Ar   2.4859712409440742        2.8457539967698131        1.1922329780025098     
 Ar   1.9008228490560879        7.0454958532301868        1.4379635719974901     
           2
 Step          740 : KE=   6.9025072743138201E-310 , PE=   0.0000000000000000      , TE=   0.0000000000000000     
 Ar   2.4859712406830341        2.8457539986433722        1.1922329781121332     
 Ar   1.9008228493171302        7.0454958513566277        1.4379635718878667     
           2
 Step          750 : KE=   6.9025072743138201E-310 , PE=   0.0000000000000000      , TE=   0.0000000000000000     
 Ar   2.4859712404219940        2.8457540005169313        1.1922329782217567     
 Ar   1.9008228495781725        7.0454958494830686        1.4379635717782433     
           2
 Step          760 : KE=   6.9025072743138201E-310 , PE=   0.0000000000000000      , TE=   0.0000000000000000     
 Ar   2.4859712401609539        2.8457540023904904        1.1922329783313801     
 Ar   1.9008228498392148        7.0454958476095095        1.4379635716686199     
           2
 Step          770 : KE=   6.9025072743138201E-310 , PE=   0.0000000000000000      , TE=   0.0000000000000000     
 Ar   2.4859712398999139        2.8457540042640495        1.1922329784410035     
 Ar   1.9008228501002571        7.0454958457359504        1.4379635715589965     
           2
 Step          780 : KE=   6.9025072743138201E-310 , PE=   0.0000000000000000      , TE=   0.0000000000000000     
 Ar   2.4859712396388738        2.8457540061376085        1.1922329785506269     
 Ar   1.9008228503612994        7.0454958438623914        1.4379635714493730     
           2
 Step          790 : KE=   6.9025072743138201E-310 , PE=   0.0000000000000000      , TE=   0.0000000000000000     
 Ar   2.4859712393778337        2.8457540080111676        1.1922329786602504     
 Ar   1.9008228506223417        7.0454958419888323        1.4379635713397496     
           2
 Step          800 : KE=   6.9025072743138201E-310 , PE=   0.0000000000000000      , TE=   0.0000000000000000     
 Ar   2.4859712391167936        2.8457540098847267        1.1922329787698738     
 Ar   1.9008228508833840        7.0454958401152732        1.4379635712301262     
           2
 Step          810 : KE=   6.9025072743138201E-310 , PE=   0.0000000000000000      , TE=   0.0000000000000000     
 Ar   2.4859712388557536        2.8457540117582858        1.1922329788794972     
 Ar   1.9008228511444263        7.0454958382417141        1.4379635711205028     
           2
 Step          820 : KE=   6.9025072743138201E-310 , PE=   0.0000000000000000      , TE=   0.0000000000000000     
 Ar   2.4859712385947135        2.8457540136318449        1.1922329789891206     
 Ar   1.9008228514054686        7.0454958363681550        1.4379635710108793     
           2
 Step          830 : KE=   6.9025072743138201E-310 , PE=   0.0000000000000000      , TE=   0.0000000000000000     
 Ar   2.4859712383336734        2.8457540155054040        1.1922329790987440     
 Ar   1.9008228516665109        7.0454958344945959        1.4379635709012559     
           2
 Step          840 : KE=   6.9025072743138201E-310 , PE=   0.0000000000000000      , TE=   0.0000000000000000     
 Ar   2.4859712380726333        2.8457540173789631        1.1922329792083675     
 Ar   1.9008228519275532        7.0454958326210368        1.4379635707916325     
           2
 Step          850 : KE=   6.9025072743138201E-310 , PE=   0.0000000000000000      , TE=   0.0000000000000000     
 Ar   2.4859712378115932        2.8457540192525221        1.1922329793179909     
 Ar   1.9008228521885955        7.0454958307474778        1.4379635706820091     
           2
 Step          860 : KE=   6.9025072743138201E-310 , PE=   0.0000000000000000      , TE=   0.0000000000000000     
 Ar   2.4859712375505532        2.8457540211260812        1.1922329794276143     
 Ar   1.9008228524496378        7.0454958288739187        1.4379635705723857     
           2
 Step          870 : KE=   6.9025072743138201E-310 , PE=   0.0000000000000000      , TE=   0.0000000000000000     
 Ar   2.4859712372895131        2.8457540229996403        1.1922329795372377     
 Ar   1.9008228527106801        7.0454958270003596        1.4379635704627622     
           2
 Step          880 : KE=   6.9025072743138201E-310 , PE=   0.0000000000000000      , TE=   0.0000000000000000     
 Ar   2.4859712370284730        2.8457540248731994        1.1922329796468611     
 Ar   1.9008228529717224        7.0454958251268005        1.4379635703531388     
           2
 Step          890 : KE=   6.9025072743138201E-310 , PE=   0.0000000000000000      , TE=   0.0000000000000000     
 Ar   2.4859712367674329        2.8457540267467585        1.1922329797564846     
 Ar   1.9008228532327647        7.0454958232532414        1.4379635702435154     
           2
 Step          900 : KE=   6.9025072743138201E-310 , PE=   0.0000000000000000      , TE=   0.0000000000000000     
 Ar   2.4859712365063928        2.8457540286203176        1.1922329798661080     
 Ar   1.9008228534938070        7.0454958213796823        1.4379635701338920     
           2
 Step          910 : KE=   6.9025072743138201E-310 , PE=   0.0000000000000000      , TE=   0.0000000000000000     
 Ar   2.4859712362453528        2.8457540304938767        1.1922329799757314     
 Ar   1.9008228537548493        7.0454958195061232        1.4379635700242686     
           2
 Step          920 : KE=   6.9025072743138201E-310 , PE=   0.0000000000000000      , TE=   0.0000000000000000     
 Ar   2.4859712359843127        2.8457540323674357        1.1922329800853548     
 Ar   1.9008228540158916        7.0454958176325642        1.4379635699146451     
           2
 Step          930 : KE=   6.9025072743138201E-310 , PE=   0.0000000000000000      , TE=   0.0000000000000000     
 Ar   2.4859712357232726        2.8457540342409948        1.1922329801949783     
 Ar   1.9008228542769339        7.0454958157590051        1.4379635698050217     
           2
 Step          940 : KE=   6.9025072743138201E-310 , PE=   0.0000000000000000      , TE=   0.0000000000000000     
 Ar   2.4859712354622325        2.8457540361145539        1.1922329803046017     
 Ar   1.9008228545379762        7.0454958138854460        1.4379635696953983     
           2
 Step          950 : KE=   6.9025072743138201E-310 , PE=   0.0000000000000000      , TE=   0.0000000000000000     
 Ar   2.4859712352011925        2.8457540379881130        1.1922329804142251     
 Ar   1.9008228547990185        7.0454958120118869        1.4379635695857749     
           2
 Step          960 : KE=   6.9025072743138201E-310 , PE=   0.0000000000000000      , TE=   0.0000000000000000     
 Ar   2.4859712349401524        2.8457540398616721        1.1922329805238485     
 Ar   1.9008228550600608        7.0454958101383278        1.4379635694761514     
           2
 Step          970 : KE=   6.9025072743138201E-310 , PE=   0.0000000000000000      , TE=   0.0000000000000000     
 Ar   2.4859712346791123        2.8457540417352312        1.1922329806334719     
 Ar   1.9008228553211031        7.0454958082647687        1.4379635693665280     
           2
 Step          980 : KE=   6.9025072743138201E-310 , PE=   0.0000000000000000      , TE=   0.0000000000000000     
 Ar   2.4859712344180722        2.8457540436087903        1.1922329807430954     
 Ar   1.9008228555821454        7.0454958063912096        1.4379635692569046     
           2
 Step          990 : KE=   6.9025072743138201E-310 , PE=   0.0000000000000000      , TE=   0.0000000000000000     
 Ar   2.4859712341570321        2.8457540454823493        1.1922329808527188     
 Ar   1.9008228558431877        7.0454958045176506        1.4379635691472812     
           2
 Step         1000 : KE=   6.9025072743138201E-310 , PE=   0.0000000000000000      , TE=   0.0000000000000000     
 Ar   2.4859712338959921        2.8457540473559084        1.1922329809623422     
 Ar   1.9008228561042300        7.0454958026440915        1.4379635690376578     
