2
Energies (in J/mol): KE=   1.199235E-21, PE=  -6.307888E-08, TE=  -6.307888E-08, Step=    10, Time=          2.000 fs
Ar     2.48597126     2.84575386     1.19223297
Ar     1.90082283     7.04549599     1.43796358

2
Energies (in J/mol): KE=   1.201620E-21, PE=  -6.307888E-08, TE=  -6.307888E-08, Step=    20, Time=          4.000 fs
Ar     2.48597126     2.84575386     1.19223297
Ar     1.90082283     7.04549599     1.43796358

2
Energies (in J/mol): KE=   1.205595E-21, PE=  -6.307888E-08, TE=  -6.307888E-08, Step=    30, Time=          6.000 fs
Ar     2.48597126     2.84575386     1.19223297
Ar     1.90082283     7.04549599     1.43796358

2
Energies (in J/mol): KE=   1.211160E-21, PE=  -6.307888E-08, TE=  -6.307888E-08, Step=    40, Time=          8.000 fs
Ar     2.48597126     2.84575386     1.19223297
Ar     1.90082283     7.04549599     1.43796358

2
Energies (in J/mol): KE=   1.218316E-21, PE=  -6.307888E-08, TE=  -6.307888E-08, Step=    50, Time=         10.000 fs
Ar     2.48597126     2.84575386     1.19223297
Ar     1.90082283     7.04549599     1.43796358

2
Energies (in J/mol): KE=   1.227061E-21, PE=  -6.307888E-08, TE=  -6.307888E-08, Step=    60, Time=         12.000 fs
Ar     2.48597126     2.84575386     1.19223297
Ar     1.90082283     7.04549599     1.43796358

2
Energies (in J/mol): KE=   1.237396E-21, PE=  -6.307888E-08, TE=  -6.307888E-08, Step=    70, Time=         14.000 fs
Ar     2.48597126     2.84575386     1.19223297
Ar     1.90082283     7.04549599     1.43796358

2
Energies (in J/mol): KE=   1.249322E-21, PE=  -6.307888E-08, TE=  -6.307888E-08, Step=    80, Time=         16.000 fs
Ar     2.48597126     2.84575386     1.19223297
Ar     1.90082283     7.04549599     1.43796358

2
Energies (in J/mol): KE=   1.262837E-21, PE=  -6.307888E-08, TE=  -6.307888E-08, Step=    90, Time=         18.000 fs
Ar     2.48597126     2.84575386     1.19223297
Ar     1.90082283     7.04549599     1.43796358

2
Energies (in J/mol): KE=   1.277943E-21, PE=  -6.307888E-08, TE=  -6.307888E-08, Step=   100, Time=         20.000 fs
Ar     2.48597126     2.84575386     1.19223297
Ar     1.90082283     7.04549599     1.43796358

2
Energies (in J/mol): KE=   1.294639E-21, PE=  -6.307888E-08, TE=  -6.307888E-08, Step=   110, Time=         22.000 fs
Ar     2.48597126     2.84575386     1.19223297
Ar     1.90082283     7.04549599     1.43796358

2
Energies (in J/mol): KE=   1.312924E-21, PE=  -6.307888E-08, TE=  -6.307888E-08, Step=   120, Time=         24.000 fs
Ar     2.48597126     2.84575386     1.19223297
Ar     1.90082283     7.04549599     1.43796358

2
Energies (in J/mol): KE=   1.332800E-21, PE=  -6.307888E-08, TE=  -6.307888E-08, Step=   130, Time=         26.000 fs
Ar     2.48597126     2.84575386     1.19223297
Ar     1.90082283     7.04549599     1.43796358

2
Energies (in J/mol): KE=   1.354266E-21, PE=  -6.307888E-08, TE=  -6.307888E-08, Step=   140, Time=         28.000 fs
Ar     2.48597126     2.84575386     1.19223297
Ar     1.90082283     7.04549599     1.43796358

2
Energies (in J/mol): KE=   1.377322E-21, PE=  -6.307888E-08, TE=  -6.307888E-08, Step=   150, Time=         30.000 fs
Ar     2.48597126     2.84575386     1.19223297
Ar     1.90082283     7.04549599     1.43796358

2
Energies (in J/mol): KE=   1.401968E-21, PE=  -6.307888E-08, TE=  -6.307888E-08, Step=   160, Time=         32.000 fs
Ar     2.48597126     2.84575386     1.19223297
Ar     1.90082283     7.04549599     1.43796358

2
Energies (in J/mol): KE=   1.428204E-21, PE=  -6.307888E-08, TE=  -6.307888E-08, Step=   170, Time=         34.000 fs
Ar     2.48597126     2.84575386     1.19223297
Ar     1.90082283     7.04549599     1.43796358

2
Energies (in J/mol): KE=   1.456030E-21, PE=  -6.307888E-08, TE=  -6.307888E-08, Step=   180, Time=         36.000 fs
Ar     2.48597126     2.84575386     1.19223297
Ar     1.90082283     7.04549599     1.43796358

2
Energies (in J/mol): KE=   1.485446E-21, PE=  -6.307888E-08, TE=  -6.307888E-08, Step=   190, Time=         38.000 fs
Ar     2.48597126     2.84575386     1.19223297
Ar     1.90082283     7.04549599     1.43796358

2
Energies (in J/mol): KE=   1.516452E-21, PE=  -6.307888E-08, TE=  -6.307888E-08, Step=   200, Time=         40.000 fs
Ar     2.48597126     2.84575386     1.19223297
Ar     1.90082283     7.04549599     1.43796358

2
Energies (in J/mol): KE=   1.549048E-21, PE=  -6.307888E-08, TE=  -6.307888E-08, Step=   210, Time=         42.000 fs
Ar     2.48597126     2.84575386     1.19223297
Ar     1.90082283     7.04549599     1.43796358

2
Energies (in J/mol): KE=   1.583235E-21, PE=  -6.307888E-08, TE=  -6.307888E-08, Step=   220, Time=         44.000 fs
Ar     2.48597126     2.84575386     1.19223297
Ar     1.90082283     7.04549599     1.43796358

2
Energies (in J/mol): KE=   1.619011E-21, PE=  -6.307888E-08, TE=  -6.307888E-08, Step=   230, Time=         46.000 fs
Ar     2.48597126     2.84575386     1.19223297
Ar     1.90082283     7.04549599     1.43796358

2
Energies (in J/mol): KE=   1.656378E-21, PE=  -6.307888E-08, TE=  -6.307888E-08, Step=   240, Time=         48.000 fs
Ar     2.48597126     2.84575386     1.19223297
Ar     1.90082283     7.04549599     1.43796358

2
Energies (in J/mol): KE=   1.695334E-21, PE=  -6.307888E-08, TE=  -6.307888E-08, Step=   250, Time=         50.000 fs
Ar     2.48597126     2.84575386     1.19223297
Ar     1.90082283     7.04549599     1.43796358

2
Energies (in J/mol): KE=   1.735881E-21, PE=  -6.307888E-08, TE=  -6.307888E-08, Step=   260, Time=         52.000 fs
Ar     2.48597126     2.84575386     1.19223297
Ar     1.90082283     7.04549599     1.43796358

2
Energies (in J/mol): KE=   1.778017E-21, PE=  -6.307888E-08, TE=  -6.307888E-08, Step=   270, Time=         54.000 fs
Ar     2.48597126     2.84575386     1.19223297
Ar     1.90082283     7.04549599     1.43796358

2
Energies (in J/mol): KE=   1.821744E-21, PE=  -6.307888E-08, TE=  -6.307888E-08, Step=   280, Time=         56.000 fs
Ar     2.48597126     2.84575386     1.19223297
Ar     1.90082283     7.04549599     1.43796358

2
Energies (in J/mol): KE=   1.867061E-21, PE=  -6.307888E-08, TE=  -6.307888E-08, Step=   290, Time=         58.000 fs
Ar     2.48597126     2.84575386     1.19223297
Ar     1.90082283     7.04549599     1.43796358

2
Energies (in J/mol): KE=   1.913968E-21, PE=  -6.307888E-08, TE=  -6.307888E-08, Step=   300, Time=         60.000 fs
Ar     2.48597126     2.84575386     1.19223297
Ar     1.90082283     7.04549599     1.43796358

2
Energies (in J/mol): KE=   1.962464E-21, PE=  -6.307888E-08, TE=  -6.307888E-08, Step=   310, Time=         62.000 fs
Ar     2.48597126     2.84575386     1.19223297
Ar     1.90082283     7.04549599     1.43796358

2
Energies (in J/mol): KE=   2.012551E-21, PE=  -6.307888E-08, TE=  -6.307888E-08, Step=   320, Time=         64.000 fs
Ar     2.48597126     2.84575386     1.19223297
Ar     1.90082283     7.04549599     1.43796358

2
Energies (in J/mol): KE=   2.064228E-21, PE=  -6.307888E-08, TE=  -6.307888E-08, Step=   330, Time=         66.000 fs
Ar     2.48597126     2.84575386     1.19223297
Ar     1.90082283     7.04549599     1.43796358

2
Energies (in J/mol): KE=   2.117495E-21, PE=  -6.307888E-08, TE=  -6.307888E-08, Step=   340, Time=         68.000 fs
Ar     2.48597126     2.84575386     1.19223297
Ar     1.90082283     7.04549599     1.43796358

2
Energies (in J/mol): KE=   2.172352E-21, PE=  -6.307888E-08, TE=  -6.307888E-08, Step=   350, Time=         70.000 fs
Ar     2.48597126     2.84575386     1.19223297
Ar     1.90082283     7.04549599     1.43796358

2
Energies (in J/mol): KE=   2.228800E-21, PE=  -6.307888E-08, TE=  -6.307888E-08, Step=   360, Time=         72.000 fs
Ar     2.48597126     2.84575386     1.19223297
Ar     1.90082283     7.04549599     1.43796358

2
Energies (in J/mol): KE=   2.286837E-21, PE=  -6.307888E-08, TE=  -6.307888E-08, Step=   370, Time=         74.000 fs
Ar     2.48597126     2.84575386     1.19223297
Ar     1.90082283     7.04549599     1.43796358

2
Energies (in J/mol): KE=   2.346464E-21, PE=  -6.307888E-08, TE=  -6.307888E-08, Step=   380, Time=         76.000 fs
Ar     2.48597126     2.84575386     1.19223297
Ar     1.90082283     7.04549599     1.43796358

2
Energies (in J/mol): KE=   2.407682E-21, PE=  -6.307888E-08, TE=  -6.307888E-08, Step=   390, Time=         78.000 fs
Ar     2.48597126     2.84575386     1.19223297
Ar     1.90082283     7.04549599     1.43796358

2
Energies (in J/mol): KE=   2.470489E-21, PE=  -6.307888E-08, TE=  -6.307888E-08, Step=   400, Time=         80.000 fs
Ar     2.48597126     2.84575386     1.19223297
Ar     1.90082283     7.04549599     1.43796358

2
Energies (in J/mol): KE=   2.534886E-21, PE=  -6.307888E-08, TE=  -6.307888E-08, Step=   410, Time=         82.000 fs
Ar     2.48597126     2.84575386     1.19223297
Ar     1.90082283     7.04549599     1.43796358

2
Energies (in J/mol): KE=   2.600874E-21, PE=  -6.307888E-08, TE=  -6.307888E-08, Step=   420, Time=         84.000 fs
Ar     2.48597126     2.84575386     1.19223297
Ar     1.90082283     7.04549599     1.43796358

2
Energies (in J/mol): KE=   2.668452E-21, PE=  -6.307888E-08, TE=  -6.307888E-08, Step=   430, Time=         86.000 fs
Ar     2.48597126     2.84575386     1.19223297
Ar     1.90082283     7.04549599     1.43796358

2
Energies (in J/mol): KE=   2.737619E-21, PE=  -6.307888E-08, TE=  -6.307888E-08, Step=   440, Time=         88.000 fs
Ar     2.48597126     2.84575386     1.19223297
Ar     1.90082283     7.04549599     1.43796358

2
Energies (in J/mol): KE=   2.808377E-21, PE=  -6.307888E-08, TE=  -6.307888E-08, Step=   450, Time=         90.000 fs
Ar     2.48597126     2.84575386     1.19223297
Ar     1.90082283     7.04549599     1.43796358

2
Energies (in J/mol): KE=   2.880725E-21, PE=  -6.307888E-08, TE=  -6.307888E-08, Step=   460, Time=         92.000 fs
Ar     2.48597126     2.84575386     1.19223297
Ar     1.90082283     7.04549599     1.43796358

2
Energies (in J/mol): KE=   2.954663E-21, PE=  -6.307888E-08, TE=  -6.307888E-08, Step=   470, Time=         94.000 fs
Ar     2.48597126     2.84575386     1.19223297
Ar     1.90082283     7.04549599     1.43796358

2
Energies (in J/mol): KE=   3.030190E-21, PE=  -6.307888E-08, TE=  -6.307888E-08, Step=   480, Time=         96.000 fs
Ar     2.48597126     2.84575386     1.19223297
Ar     1.90082283     7.04549599     1.43796358

2
Energies (in J/mol): KE=   3.107308E-21, PE=  -6.307888E-08, TE=  -6.307888E-08, Step=   490, Time=         98.000 fs
Ar     2.48597126     2.84575386     1.19223297
Ar     1.90082283     7.04549599     1.43796358

2
Energies (in J/mol): KE=   3.186016E-21, PE=  -6.307888E-08, TE=  -6.307888E-08, Step=   500, Time=        100.000 fs
Ar     2.48597126     2.84575386     1.19223297
Ar     1.90082283     7.04549599     1.43796358

2
Energies (in J/mol): KE=   3.266315E-21, PE=  -6.307888E-08, TE=  -6.307888E-08, Step=   510, Time=        102.000 fs
Ar     2.48597126     2.84575386     1.19223297
Ar     1.90082283     7.04549599     1.43796358

2
Energies (in J/mol): KE=   3.348203E-21, PE=  -6.307888E-08, TE=  -6.307888E-08, Step=   520, Time=        104.000 fs
Ar     2.48597126     2.84575386     1.19223297
Ar     1.90082283     7.04549599     1.43796358

2
Energies (in J/mol): KE=   3.431681E-21, PE=  -6.307888E-08, TE=  -6.307888E-08, Step=   530, Time=        106.000 fs
Ar     2.48597126     2.84575386     1.19223297
Ar     1.90082283     7.04549599     1.43796358

2
Energies (in J/mol): KE=   3.516749E-21, PE=  -6.307888E-08, TE=  -6.307888E-08, Step=   540, Time=        108.000 fs
Ar     2.48597126     2.84575386     1.19223297
Ar     1.90082283     7.04549599     1.43796358

2
Energies (in J/mol): KE=   3.603408E-21, PE=  -6.307888E-08, TE=  -6.307888E-08, Step=   550, Time=        110.000 fs
Ar     2.48597126     2.84575386     1.19223297
Ar     1.90082283     7.04549599     1.43796358

2
Energies (in J/mol): KE=   3.691656E-21, PE=  -6.307888E-08, TE=  -6.307888E-08, Step=   560, Time=        112.000 fs
Ar     2.48597126     2.84575386     1.19223297
Ar     1.90082283     7.04549599     1.43796358

2
Energies (in J/mol): KE=   3.781494E-21, PE=  -6.307888E-08, TE=  -6.307888E-08, Step=   570, Time=        114.000 fs
Ar     2.48597126     2.84575386     1.19223297
Ar     1.90082283     7.04549599     1.43796358

2
Energies (in J/mol): KE=   3.872923E-21, PE=  -6.307888E-08, TE=  -6.307888E-08, Step=   580, Time=        116.000 fs
Ar     2.48597126     2.84575386     1.19223297
Ar     1.90082283     7.04549599     1.43796358

2
Energies (in J/mol): KE=   3.965941E-21, PE=  -6.307888E-08, TE=  -6.307888E-08, Step=   590, Time=        118.000 fs
Ar     2.48597126     2.84575386     1.19223297
Ar     1.90082283     7.04549599     1.43796358

2
Energies (in J/mol): KE=   4.060550E-21, PE=  -6.307888E-08, TE=  -6.307888E-08, Step=   600, Time=        120.000 fs
Ar     2.48597126     2.84575386     1.19223297
Ar     1.90082283     7.04549599     1.43796358

2
Energies (in J/mol): KE=   4.156749E-21, PE=  -6.307888E-08, TE=  -6.307888E-08, Step=   610, Time=        122.000 fs
Ar     2.48597126     2.84575386     1.19223297
Ar     1.90082283     7.04549599     1.43796358

2
Energies (in J/mol): KE=   4.254538E-21, PE=  -6.307888E-08, TE=  -6.307888E-08, Step=   620, Time=        124.000 fs
Ar     2.48597126     2.84575386     1.19223297
Ar     1.90082283     7.04549599     1.43796358

2
Energies (in J/mol): KE=   4.353916E-21, PE=  -6.307888E-08, TE=  -6.307888E-08, Step=   630, Time=        126.000 fs
Ar     2.48597126     2.84575386     1.19223297
Ar     1.90082283     7.04549599     1.43796358

2
Energies (in J/mol): KE=   4.454885E-21, PE=  -6.307888E-08, TE=  -6.307888E-08, Step=   640, Time=        128.000 fs
Ar     2.48597126     2.84575386     1.19223297
Ar     1.90082283     7.04549599     1.43796358

2
Energies (in J/mol): KE=   4.557444E-21, PE=  -6.307888E-08, TE=  -6.307888E-08, Step=   650, Time=        130.000 fs
Ar     2.48597126     2.84575386     1.19223297
Ar     1.90082283     7.04549599     1.43796358

2
Energies (in J/mol): KE=   4.661593E-21, PE=  -6.307888E-08, TE=  -6.307888E-08, Step=   660, Time=        132.000 fs
Ar     2.48597126     2.84575386     1.19223297
Ar     1.90082283     7.04549599     1.43796358

2
Energies (in J/mol): KE=   4.767332E-21, PE=  -6.307888E-08, TE=  -6.307888E-08, Step=   670, Time=        134.000 fs
Ar     2.48597126     2.84575386     1.19223297
Ar     1.90082283     7.04549599     1.43796358

2
Energies (in J/mol): KE=   4.874661E-21, PE=  -6.307888E-08, TE=  -6.307888E-08, Step=   680, Time=        136.000 fs
Ar     2.48597126     2.84575386     1.19223297
Ar     1.90082283     7.04549599     1.43796358

2
Energies (in J/mol): KE=   4.983581E-21, PE=  -6.307888E-08, TE=  -6.307888E-08, Step=   690, Time=        138.000 fs
Ar     2.48597126     2.84575386     1.19223297
Ar     1.90082283     7.04549599     1.43796358

2
Energies (in J/mol): KE=   5.094090E-21, PE=  -6.307888E-08, TE=  -6.307888E-08, Step=   700, Time=        140.000 fs
Ar     2.48597126     2.84575386     1.19223297
Ar     1.90082283     7.04549599     1.43796358

2
Energies (in J/mol): KE=   5.206189E-21, PE=  -6.307888E-08, TE=  -6.307888E-08, Step=   710, Time=        142.000 fs
Ar     2.48597126     2.84575386     1.19223297
Ar     1.90082283     7.04549599     1.43796358

2
Energies (in J/mol): KE=   5.319879E-21, PE=  -6.307888E-08, TE=  -6.307888E-08, Step=   720, Time=        144.000 fs
Ar     2.48597126     2.84575386     1.19223297
Ar     1.90082283     7.04549599     1.43796358

2
Energies (in J/mol): KE=   5.435158E-21, PE=  -6.307888E-08, TE=  -6.307888E-08, Step=   730, Time=        146.000 fs
Ar     2.48597126     2.84575386     1.19223297
Ar     1.90082283     7.04549599     1.43796358

2
Energies (in J/mol): KE=   5.552027E-21, PE=  -6.307888E-08, TE=  -6.307888E-08, Step=   740, Time=        148.000 fs
Ar     2.48597126     2.84575386     1.19223297
Ar     1.90082283     7.04549599     1.43796358

2
Energies (in J/mol): KE=   5.670487E-21, PE=  -6.307888E-08, TE=  -6.307888E-08, Step=   750, Time=        150.000 fs
Ar     2.48597126     2.84575386     1.19223297
Ar     1.90082283     7.04549599     1.43796358

2
Energies (in J/mol): KE=   5.790537E-21, PE=  -6.307888E-08, TE=  -6.307888E-08, Step=   760, Time=        152.000 fs
Ar     2.48597126     2.84575386     1.19223297
Ar     1.90082283     7.04549599     1.43796358

2
Energies (in J/mol): KE=   5.912176E-21, PE=  -6.307888E-08, TE=  -6.307888E-08, Step=   770, Time=        154.000 fs
Ar     2.48597126     2.84575386     1.19223297
Ar     1.90082283     7.04549599     1.43796358

2
Energies (in J/mol): KE=   6.035406E-21, PE=  -6.307888E-08, TE=  -6.307888E-08, Step=   780, Time=        156.000 fs
Ar     2.48597126     2.84575386     1.19223297
Ar     1.90082283     7.04549599     1.43796358

2
Energies (in J/mol): KE=   6.160226E-21, PE=  -6.307888E-08, TE=  -6.307888E-08, Step=   790, Time=        158.000 fs
Ar     2.48597126     2.84575386     1.19223297
Ar     1.90082283     7.04549599     1.43796358

2
Energies (in J/mol): KE=   6.286636E-21, PE=  -6.307888E-08, TE=  -6.307888E-08, Step=   800, Time=        160.000 fs
Ar     2.48597126     2.84575386     1.19223297
Ar     1.90082283     7.04549599     1.43796358

2
Energies (in J/mol): KE=   6.414636E-21, PE=  -6.307888E-08, TE=  -6.307888E-08, Step=   810, Time=        162.000 fs
Ar     2.48597126     2.84575386     1.19223297
Ar     1.90082283     7.04549599     1.43796358

2
Energies (in J/mol): KE=   6.544226E-21, PE=  -6.307888E-08, TE=  -6.307888E-08, Step=   820, Time=        164.000 fs
Ar     2.48597126     2.84575386     1.19223297
Ar     1.90082283     7.04549599     1.43796358

2
Energies (in J/mol): KE=   6.675406E-21, PE=  -6.307888E-08, TE=  -6.307888E-08, Step=   830, Time=        166.000 fs
Ar     2.48597126     2.84575386     1.19223297
Ar     1.90082283     7.04549599     1.43796358

2
Energies (in J/mol): KE=   6.808176E-21, PE=  -6.307888E-08, TE=  -6.307888E-08, Step=   840, Time=        168.000 fs
Ar     2.48597126     2.84575386     1.19223297
Ar     1.90082283     7.04549599     1.43796358

2
Energies (in J/mol): KE=   6.942536E-21, PE=  -6.307888E-08, TE=  -6.307888E-08, Step=   850, Time=        170.000 fs
Ar     2.48597126     2.84575386     1.19223297
Ar     1.90082283     7.04549599     1.43796358

2
Energies (in J/mol): KE=   7.078486E-21, PE=  -6.307888E-08, TE=  -6.307888E-08, Step=   860, Time=        172.000 fs
Ar     2.48597126     2.84575386     1.19223297
Ar     1.90082283     7.04549599     1.43796358

2
Energies (in J/mol): KE=   7.216026E-21, PE=  -6.307888E-08, TE=  -6.307888E-08, Step=   870, Time=        174.000 fs
Ar     2.48597126     2.84575386     1.19223297
Ar     1.90082283     7.04549599     1.43796358

2
Energies (in J/mol): KE=   7.355157E-21, PE=  -6.307888E-08, TE=  -6.307888E-08, Step=   880, Time=        176.000 fs
Ar     2.48597126     2.84575386     1.19223297
Ar     1.90082283     7.04549599     1.43796358

2
Energies (in J/mol): KE=   7.495877E-21, PE=  -6.307888E-08, TE=  -6.307888E-08, Step=   890, Time=        178.000 fs
Ar     2.48597126     2.84575386     1.19223297
Ar     1.90082283     7.04549599     1.43796358

2
Energies (in J/mol): KE=   7.638188E-21, PE=  -6.307888E-08, TE=  -6.307888E-08, Step=   900, Time=        180.000 fs
Ar     2.48597126     2.84575386     1.19223297
Ar     1.90082283     7.04549599     1.43796358

2
Energies (in J/mol): KE=   7.782088E-21, PE=  -6.307888E-08, TE=  -6.307888E-08, Step=   910, Time=        182.000 fs
Ar     2.48597126     2.84575386     1.19223297
Ar     1.90082283     7.04549599     1.43796358

2
Energies (in J/mol): KE=   7.927579E-21, PE=  -6.307888E-08, TE=  -6.307888E-08, Step=   920, Time=        184.000 fs
Ar     2.48597126     2.84575386     1.19223297
Ar     1.90082283     7.04549599     1.43796358

2
Energies (in J/mol): KE=   8.074660E-21, PE=  -6.307888E-08, TE=  -6.307888E-08, Step=   930, Time=        186.000 fs
Ar     2.48597126     2.84575386     1.19223297
Ar     1.90082283     7.04549599     1.43796358

2
Energies (in J/mol): KE=   8.223330E-21, PE=  -6.307888E-08, TE=  -6.307888E-08, Step=   940, Time=        188.000 fs
Ar     2.48597126     2.84575386     1.19223297
Ar     1.90082283     7.04549599     1.43796358

2
Energies (in J/mol): KE=   8.373591E-21, PE=  -6.307888E-08, TE=  -6.307888E-08, Step=   950, Time=        190.000 fs
Ar     2.48597126     2.84575386     1.19223297
Ar     1.90082283     7.04549599     1.43796358

2
Energies (in J/mol): KE=   8.525442E-21, PE=  -6.307888E-08, TE=  -6.307888E-08, Step=   960, Time=        192.000 fs
Ar     2.48597126     2.84575386     1.19223297
Ar     1.90082283     7.04549599     1.43796358

2
Energies (in J/mol): KE=   8.678883E-21, PE=  -6.307888E-08, TE=  -6.307888E-08, Step=   970, Time=        194.000 fs
Ar     2.48597126     2.84575386     1.19223297
Ar     1.90082283     7.04549599     1.43796358

2
Energies (in J/mol): KE=   8.833914E-21, PE=  -6.307888E-08, TE=  -6.307888E-08, Step=   980, Time=        196.000 fs
Ar     2.48597126     2.84575386     1.19223297
Ar     1.90082283     7.04549599     1.43796358

2
Energies (in J/mol): KE=   8.990535E-21, PE=  -6.307888E-08, TE=  -6.307888E-08, Step=   990, Time=        198.000 fs
Ar     2.48597126     2.84575386     1.19223297
Ar     1.90082283     7.04549599     1.43796358

2
Energies (in J/mol): KE=   9.148746E-21, PE=  -6.307888E-08, TE=  -6.307888E-08, Step=  1000, Time=        200.000 fs
Ar     2.48597126     2.84575386     1.19223297
Ar     1.90082283     7.04549599     1.43796358

