2
Energies (in J/mol): KE=   2.996100E-04, PE=  -6.307888E-08, TE=   2.995469E-04, Step=    10, Time=          2.000 fs
Ar     2.48597136     2.84575396     1.19223307
Ar     1.90082293     7.04549609     1.43796368

2
Energies (in J/mol): KE=   2.996100E-04, PE=  -6.307888E-08, TE=   2.995469E-04, Step=    20, Time=          4.000 fs
Ar     2.48597146     2.84575406     1.19223317
Ar     1.90082303     7.04549619     1.43796378

2
Energies (in J/mol): KE=   2.996100E-04, PE=  -6.307888E-08, TE=   2.995469E-04, Step=    30, Time=          6.000 fs
Ar     2.48597156     2.84575416     1.19223327
Ar     1.90082313     7.04549629     1.43796388

2
Energies (in J/mol): KE=   2.996100E-04, PE=  -6.307888E-08, TE=   2.995469E-04, Step=    40, Time=          8.000 fs
Ar     2.48597166     2.84575426     1.19223337
Ar     1.90082323     7.04549639     1.43796398

2
Energies (in J/mol): KE=   2.996100E-04, PE=  -6.307888E-08, TE=   2.995469E-04, Step=    50, Time=         10.000 fs
Ar     2.48597176     2.84575436     1.19223347
Ar     1.90082333     7.04549649     1.43796408

2
Energies (in J/mol): KE=   2.996100E-04, PE=  -6.307888E-08, TE=   2.995469E-04, Step=    60, Time=         12.000 fs
Ar     2.48597186     2.84575446     1.19223357
Ar     1.90082343     7.04549659     1.43796418

2
Energies (in J/mol): KE=   2.996100E-04, PE=  -6.307888E-08, TE=   2.995469E-04, Step=    70, Time=         14.000 fs
Ar     2.48597196     2.84575456     1.19223367
Ar     1.90082353     7.04549669     1.43796428

2
Energies (in J/mol): KE=   2.996100E-04, PE=  -6.307888E-08, TE=   2.995469E-04, Step=    80, Time=         16.000 fs
Ar     2.48597206     2.84575466     1.19223377
Ar     1.90082363     7.04549679     1.43796438

2
Energies (in J/mol): KE=   2.996100E-04, PE=  -6.307888E-08, TE=   2.995469E-04, Step=    90, Time=         18.000 fs
Ar     2.48597216     2.84575476     1.19223387
Ar     1.90082373     7.04549689     1.43796448

2
Energies (in J/mol): KE=   2.996100E-04, PE=  -6.307888E-08, TE=   2.995469E-04, Step=   100, Time=         20.000 fs
Ar     2.48597226     2.84575486     1.19223397
Ar     1.90082383     7.04549699     1.43796458

2
Energies (in J/mol): KE=   2.996100E-04, PE=  -6.307888E-08, TE=   2.995469E-04, Step=   110, Time=         22.000 fs
Ar     2.48597236     2.84575496     1.19223407
Ar     1.90082393     7.04549709     1.43796468

2
Energies (in J/mol): KE=   2.996100E-04, PE=  -6.307888E-08, TE=   2.995469E-04, Step=   120, Time=         24.000 fs
Ar     2.48597246     2.84575506     1.19223417
Ar     1.90082403     7.04549719     1.43796478

2
Energies (in J/mol): KE=   2.996100E-04, PE=  -6.307888E-08, TE=   2.995469E-04, Step=   130, Time=         26.000 fs
Ar     2.48597256     2.84575516     1.19223427
Ar     1.90082413     7.04549729     1.43796488

2
Energies (in J/mol): KE=   2.996100E-04, PE=  -6.307888E-08, TE=   2.995469E-04, Step=   140, Time=         28.000 fs
Ar     2.48597266     2.84575526     1.19223437
Ar     1.90082423     7.04549739     1.43796498

2
Energies (in J/mol): KE=   2.996100E-04, PE=  -6.307888E-08, TE=   2.995469E-04, Step=   150, Time=         30.000 fs
Ar     2.48597276     2.84575536     1.19223447
Ar     1.90082433     7.04549749     1.43796508

2
Energies (in J/mol): KE=   2.996100E-04, PE=  -6.307888E-08, TE=   2.995469E-04, Step=   160, Time=         32.000 fs
Ar     2.48597286     2.84575546     1.19223457
Ar     1.90082443     7.04549759     1.43796518

2
Energies (in J/mol): KE=   2.996100E-04, PE=  -6.307888E-08, TE=   2.995469E-04, Step=   170, Time=         34.000 fs
Ar     2.48597296     2.84575556     1.19223467
Ar     1.90082453     7.04549769     1.43796528

2
Energies (in J/mol): KE=   2.996100E-04, PE=  -6.307888E-08, TE=   2.995469E-04, Step=   180, Time=         36.000 fs
Ar     2.48597306     2.84575566     1.19223477
Ar     1.90082463     7.04549779     1.43796538

2
Energies (in J/mol): KE=   2.996100E-04, PE=  -6.307888E-08, TE=   2.995469E-04, Step=   190, Time=         38.000 fs
Ar     2.48597316     2.84575576     1.19223487
Ar     1.90082473     7.04549789     1.43796548

2
Energies (in J/mol): KE=   2.996100E-04, PE=  -6.307888E-08, TE=   2.995469E-04, Step=   200, Time=         40.000 fs
Ar     2.48597326     2.84575586     1.19223497
Ar     1.90082483     7.04549799     1.43796558

2
Energies (in J/mol): KE=   2.996100E-04, PE=  -6.307888E-08, TE=   2.995469E-04, Step=   210, Time=         42.000 fs
Ar     2.48597336     2.84575596     1.19223507
Ar     1.90082493     7.04549809     1.43796568

2
Energies (in J/mol): KE=   2.996100E-04, PE=  -6.307888E-08, TE=   2.995469E-04, Step=   220, Time=         44.000 fs
Ar     2.48597346     2.84575606     1.19223517
Ar     1.90082503     7.04549819     1.43796578

2
Energies (in J/mol): KE=   2.996100E-04, PE=  -6.307888E-08, TE=   2.995469E-04, Step=   230, Time=         46.000 fs
Ar     2.48597356     2.84575616     1.19223527
Ar     1.90082513     7.04549829     1.43796588

2
Energies (in J/mol): KE=   2.996100E-04, PE=  -6.307888E-08, TE=   2.995469E-04, Step=   240, Time=         48.000 fs
Ar     2.48597366     2.84575626     1.19223537
Ar     1.90082523     7.04549839     1.43796598

2
Energies (in J/mol): KE=   2.996100E-04, PE=  -6.307888E-08, TE=   2.995469E-04, Step=   250, Time=         50.000 fs
Ar     2.48597376     2.84575636     1.19223547
Ar     1.90082533     7.04549849     1.43796608

2
Energies (in J/mol): KE=   2.996100E-04, PE=  -6.307888E-08, TE=   2.995469E-04, Step=   260, Time=         52.000 fs
Ar     2.48597386     2.84575646     1.19223557
Ar     1.90082543     7.04549859     1.43796618

2
Energies (in J/mol): KE=   2.996100E-04, PE=  -6.307888E-08, TE=   2.995469E-04, Step=   270, Time=         54.000 fs
Ar     2.48597396     2.84575656     1.19223567
Ar     1.90082553     7.04549869     1.43796628

2
Energies (in J/mol): KE=   2.996100E-04, PE=  -6.307888E-08, TE=   2.995469E-04, Step=   280, Time=         56.000 fs
Ar     2.48597406     2.84575666     1.19223577
Ar     1.90082563     7.04549879     1.43796638

2
Energies (in J/mol): KE=   2.996100E-04, PE=  -6.307888E-08, TE=   2.995469E-04, Step=   290, Time=         58.000 fs
Ar     2.48597416     2.84575676     1.19223587
Ar     1.90082573     7.04549889     1.43796648

2
Energies (in J/mol): KE=   2.996100E-04, PE=  -6.307888E-08, TE=   2.995469E-04, Step=   300, Time=         60.000 fs
Ar     2.48597426     2.84575686     1.19223597
Ar     1.90082583     7.04549899     1.43796658

2
Energies (in J/mol): KE=   2.996100E-04, PE=  -6.307888E-08, TE=   2.995469E-04, Step=   310, Time=         62.000 fs
Ar     2.48597436     2.84575696     1.19223607
Ar     1.90082593     7.04549909     1.43796668

2
Energies (in J/mol): KE=   2.996100E-04, PE=  -6.307888E-08, TE=   2.995469E-04, Step=   320, Time=         64.000 fs
Ar     2.48597446     2.84575706     1.19223617
Ar     1.90082603     7.04549919     1.43796678

2
Energies (in J/mol): KE=   2.996100E-04, PE=  -6.307888E-08, TE=   2.995469E-04, Step=   330, Time=         66.000 fs
Ar     2.48597456     2.84575716     1.19223627
Ar     1.90082613     7.04549929     1.43796688

2
Energies (in J/mol): KE=   2.996100E-04, PE=  -6.307888E-08, TE=   2.995469E-04, Step=   340, Time=         68.000 fs
Ar     2.48597466     2.84575726     1.19223637
Ar     1.90082623     7.04549939     1.43796698

2
Energies (in J/mol): KE=   2.996100E-04, PE=  -6.307888E-08, TE=   2.995469E-04, Step=   350, Time=         70.000 fs
Ar     2.48597476     2.84575736     1.19223647
Ar     1.90082633     7.04549949     1.43796708

2
Energies (in J/mol): KE=   2.996100E-04, PE=  -6.307888E-08, TE=   2.995469E-04, Step=   360, Time=         72.000 fs
Ar     2.48597486     2.84575746     1.19223657
Ar     1.90082643     7.04549959     1.43796718

2
Energies (in J/mol): KE=   2.996100E-04, PE=  -6.307888E-08, TE=   2.995469E-04, Step=   370, Time=         74.000 fs
Ar     2.48597496     2.84575756     1.19223667
Ar     1.90082653     7.04549969     1.43796728

2
Energies (in J/mol): KE=   2.996100E-04, PE=  -6.307888E-08, TE=   2.995469E-04, Step=   380, Time=         76.000 fs
Ar     2.48597506     2.84575766     1.19223677
Ar     1.90082663     7.04549979     1.43796738

2
Energies (in J/mol): KE=   2.996100E-04, PE=  -6.307888E-08, TE=   2.995469E-04, Step=   390, Time=         78.000 fs
Ar     2.48597516     2.84575776     1.19223687
Ar     1.90082673     7.04549989     1.43796748

2
Energies (in J/mol): KE=   2.996100E-04, PE=  -6.307888E-08, TE=   2.995469E-04, Step=   400, Time=         80.000 fs
Ar     2.48597526     2.84575786     1.19223697
Ar     1.90082683     7.04549999     1.43796758

2
Energies (in J/mol): KE=   2.996100E-04, PE=  -6.307888E-08, TE=   2.995469E-04, Step=   410, Time=         82.000 fs
Ar     2.48597536     2.84575796     1.19223707
Ar     1.90082693     7.04550009     1.43796768

2
Energies (in J/mol): KE=   2.996100E-04, PE=  -6.307888E-08, TE=   2.995469E-04, Step=   420, Time=         84.000 fs
Ar     2.48597546     2.84575806     1.19223717
Ar     1.90082703     7.04550019     1.43796778

2
Energies (in J/mol): KE=   2.996100E-04, PE=  -6.307888E-08, TE=   2.995469E-04, Step=   430, Time=         86.000 fs
Ar     2.48597556     2.84575816     1.19223727
Ar     1.90082713     7.04550029     1.43796788

2
Energies (in J/mol): KE=   2.996100E-04, PE=  -6.307888E-08, TE=   2.995469E-04, Step=   440, Time=         88.000 fs
Ar     2.48597566     2.84575826     1.19223737
Ar     1.90082723     7.04550039     1.43796798

2
Energies (in J/mol): KE=   2.996100E-04, PE=  -6.307888E-08, TE=   2.995469E-04, Step=   450, Time=         90.000 fs
Ar     2.48597576     2.84575836     1.19223747
Ar     1.90082733     7.04550049     1.43796808

2
Energies (in J/mol): KE=   2.996100E-04, PE=  -6.307888E-08, TE=   2.995469E-04, Step=   460, Time=         92.000 fs
Ar     2.48597586     2.84575846     1.19223757
Ar     1.90082743     7.04550059     1.43796818

2
Energies (in J/mol): KE=   2.996100E-04, PE=  -6.307888E-08, TE=   2.995469E-04, Step=   470, Time=         94.000 fs
Ar     2.48597596     2.84575856     1.19223767
Ar     1.90082753     7.04550069     1.43796828

2
Energies (in J/mol): KE=   2.996100E-04, PE=  -6.307888E-08, TE=   2.995469E-04, Step=   480, Time=         96.000 fs
Ar     2.48597606     2.84575866     1.19223777
Ar     1.90082763     7.04550079     1.43796838

2
Energies (in J/mol): KE=   2.996100E-04, PE=  -6.307888E-08, TE=   2.995469E-04, Step=   490, Time=         98.000 fs
Ar     2.48597616     2.84575876     1.19223787
Ar     1.90082773     7.04550089     1.43796848

2
Energies (in J/mol): KE=   2.996100E-04, PE=  -6.307888E-08, TE=   2.995469E-04, Step=   500, Time=        100.000 fs
Ar     2.48597626     2.84575886     1.19223797
Ar     1.90082783     7.04550099     1.43796858

2
Energies (in J/mol): KE=   2.996100E-04, PE=  -6.307888E-08, TE=   2.995469E-04, Step=   510, Time=        102.000 fs
Ar     2.48597636     2.84575896     1.19223807
Ar     1.90082793     7.04550109     1.43796868

2
Energies (in J/mol): KE=   2.996100E-04, PE=  -6.307888E-08, TE=   2.995469E-04, Step=   520, Time=        104.000 fs
Ar     2.48597646     2.84575906     1.19223817
Ar     1.90082803     7.04550119     1.43796878

2
Energies (in J/mol): KE=   2.996100E-04, PE=  -6.307888E-08, TE=   2.995469E-04, Step=   530, Time=        106.000 fs
Ar     2.48597656     2.84575916     1.19223827
Ar     1.90082813     7.04550129     1.43796888

2
Energies (in J/mol): KE=   2.996100E-04, PE=  -6.307888E-08, TE=   2.995469E-04, Step=   540, Time=        108.000 fs
Ar     2.48597666     2.84575926     1.19223837
Ar     1.90082823     7.04550139     1.43796898

2
Energies (in J/mol): KE=   2.996100E-04, PE=  -6.307888E-08, TE=   2.995469E-04, Step=   550, Time=        110.000 fs
Ar     2.48597676     2.84575936     1.19223847
Ar     1.90082833     7.04550149     1.43796908

2
Energies (in J/mol): KE=   2.996100E-04, PE=  -6.307888E-08, TE=   2.995469E-04, Step=   560, Time=        112.000 fs
Ar     2.48597686     2.84575946     1.19223857
Ar     1.90082843     7.04550159     1.43796918

2
Energies (in J/mol): KE=   2.996100E-04, PE=  -6.307888E-08, TE=   2.995469E-04, Step=   570, Time=        114.000 fs
Ar     2.48597696     2.84575956     1.19223867
Ar     1.90082853     7.04550169     1.43796928

2
Energies (in J/mol): KE=   2.996100E-04, PE=  -6.307888E-08, TE=   2.995469E-04, Step=   580, Time=        116.000 fs
Ar     2.48597706     2.84575966     1.19223877
Ar     1.90082863     7.04550179     1.43796938

2
Energies (in J/mol): KE=   2.996100E-04, PE=  -6.307888E-08, TE=   2.995469E-04, Step=   590, Time=        118.000 fs
Ar     2.48597716     2.84575976     1.19223887
Ar     1.90082873     7.04550189     1.43796948

2
Energies (in J/mol): KE=   2.996100E-04, PE=  -6.307888E-08, TE=   2.995469E-04, Step=   600, Time=        120.000 fs
Ar     2.48597726     2.84575986     1.19223897
Ar     1.90082883     7.04550199     1.43796958

2
Energies (in J/mol): KE=   2.996100E-04, PE=  -6.307888E-08, TE=   2.995469E-04, Step=   610, Time=        122.000 fs
Ar     2.48597736     2.84575996     1.19223907
Ar     1.90082893     7.04550209     1.43796968

2
Energies (in J/mol): KE=   2.996100E-04, PE=  -6.307888E-08, TE=   2.995469E-04, Step=   620, Time=        124.000 fs
Ar     2.48597746     2.84576006     1.19223917
Ar     1.90082903     7.04550219     1.43796978

2
Energies (in J/mol): KE=   2.996100E-04, PE=  -6.307888E-08, TE=   2.995469E-04, Step=   630, Time=        126.000 fs
Ar     2.48597756     2.84576016     1.19223927
Ar     1.90082913     7.04550229     1.43796988

2
Energies (in J/mol): KE=   2.996100E-04, PE=  -6.307888E-08, TE=   2.995469E-04, Step=   640, Time=        128.000 fs
Ar     2.48597766     2.84576026     1.19223937
Ar     1.90082923     7.04550239     1.43796998

2
Energies (in J/mol): KE=   2.996100E-04, PE=  -6.307888E-08, TE=   2.995469E-04, Step=   650, Time=        130.000 fs
Ar     2.48597776     2.84576036     1.19223947
Ar     1.90082933     7.04550249     1.43797008

2
Energies (in J/mol): KE=   2.996100E-04, PE=  -6.307888E-08, TE=   2.995469E-04, Step=   660, Time=        132.000 fs
Ar     2.48597786     2.84576046     1.19223957
Ar     1.90082943     7.04550259     1.43797018

2
Energies (in J/mol): KE=   2.996100E-04, PE=  -6.307888E-08, TE=   2.995469E-04, Step=   670, Time=        134.000 fs
Ar     2.48597796     2.84576056     1.19223967
Ar     1.90082953     7.04550269     1.43797028

2
Energies (in J/mol): KE=   2.996100E-04, PE=  -6.307888E-08, TE=   2.995469E-04, Step=   680, Time=        136.000 fs
Ar     2.48597806     2.84576066     1.19223977
Ar     1.90082963     7.04550279     1.43797038

2
Energies (in J/mol): KE=   2.996100E-04, PE=  -6.307888E-08, TE=   2.995469E-04, Step=   690, Time=        138.000 fs
Ar     2.48597816     2.84576076     1.19223987
Ar     1.90082973     7.04550289     1.43797048

2
Energies (in J/mol): KE=   2.996100E-04, PE=  -6.307888E-08, TE=   2.995469E-04, Step=   700, Time=        140.000 fs
Ar     2.48597826     2.84576086     1.19223997
Ar     1.90082983     7.04550299     1.43797058

2
Energies (in J/mol): KE=   2.996100E-04, PE=  -6.307888E-08, TE=   2.995469E-04, Step=   710, Time=        142.000 fs
Ar     2.48597836     2.84576096     1.19224007
Ar     1.90082993     7.04550309     1.43797068

2
Energies (in J/mol): KE=   2.996100E-04, PE=  -6.307888E-08, TE=   2.995469E-04, Step=   720, Time=        144.000 fs
Ar     2.48597846     2.84576106     1.19224017
Ar     1.90083003     7.04550319     1.43797078

2
Energies (in J/mol): KE=   2.996100E-04, PE=  -6.307888E-08, TE=   2.995469E-04, Step=   730, Time=        146.000 fs
Ar     2.48597856     2.84576116     1.19224027
Ar     1.90083013     7.04550329     1.43797088

2
Energies (in J/mol): KE=   2.996100E-04, PE=  -6.307888E-08, TE=   2.995469E-04, Step=   740, Time=        148.000 fs
Ar     2.48597866     2.84576126     1.19224037
Ar     1.90083023     7.04550339     1.43797098

2
Energies (in J/mol): KE=   2.996100E-04, PE=  -6.307888E-08, TE=   2.995469E-04, Step=   750, Time=        150.000 fs
Ar     2.48597876     2.84576136     1.19224047
Ar     1.90083033     7.04550349     1.43797108

2
Energies (in J/mol): KE=   2.996100E-04, PE=  -6.307888E-08, TE=   2.995469E-04, Step=   760, Time=        152.000 fs
Ar     2.48597886     2.84576146     1.19224057
Ar     1.90083043     7.04550359     1.43797118

2
Energies (in J/mol): KE=   2.996100E-04, PE=  -6.307888E-08, TE=   2.995469E-04, Step=   770, Time=        154.000 fs
Ar     2.48597896     2.84576156     1.19224067
Ar     1.90083053     7.04550369     1.43797128

2
Energies (in J/mol): KE=   2.996100E-04, PE=  -6.307888E-08, TE=   2.995469E-04, Step=   780, Time=        156.000 fs
Ar     2.48597906     2.84576166     1.19224077
Ar     1.90083063     7.04550379     1.43797138

2
Energies (in J/mol): KE=   2.996100E-04, PE=  -6.307888E-08, TE=   2.995469E-04, Step=   790, Time=        158.000 fs
Ar     2.48597916     2.84576176     1.19224087
Ar     1.90083073     7.04550389     1.43797148

2
Energies (in J/mol): KE=   2.996100E-04, PE=  -6.307888E-08, TE=   2.995469E-04, Step=   800, Time=        160.000 fs
Ar     2.48597926     2.84576186     1.19224097
Ar     1.90083083     7.04550399     1.43797158

2
Energies (in J/mol): KE=   2.996100E-04, PE=  -6.307888E-08, TE=   2.995469E-04, Step=   810, Time=        162.000 fs
Ar     2.48597936     2.84576196     1.19224107
Ar     1.90083093     7.04550409     1.43797168

2
Energies (in J/mol): KE=   2.996100E-04, PE=  -6.307888E-08, TE=   2.995469E-04, Step=   820, Time=        164.000 fs
Ar     2.48597946     2.84576206     1.19224117
Ar     1.90083103     7.04550419     1.43797178

2
Energies (in J/mol): KE=   2.996100E-04, PE=  -6.307888E-08, TE=   2.995469E-04, Step=   830, Time=        166.000 fs
Ar     2.48597956     2.84576216     1.19224127
Ar     1.90083113     7.04550429     1.43797188

2
Energies (in J/mol): KE=   2.996100E-04, PE=  -6.307888E-08, TE=   2.995469E-04, Step=   840, Time=        168.000 fs
Ar     2.48597966     2.84576226     1.19224137
Ar     1.90083123     7.04550439     1.43797198

2
Energies (in J/mol): KE=   2.996100E-04, PE=  -6.307888E-08, TE=   2.995469E-04, Step=   850, Time=        170.000 fs
Ar     2.48597976     2.84576236     1.19224147
Ar     1.90083133     7.04550449     1.43797208

2
Energies (in J/mol): KE=   2.996100E-04, PE=  -6.307888E-08, TE=   2.995469E-04, Step=   860, Time=        172.000 fs
Ar     2.48597986     2.84576246     1.19224157
Ar     1.90083143     7.04550459     1.43797218

2
Energies (in J/mol): KE=   2.996100E-04, PE=  -6.307888E-08, TE=   2.995469E-04, Step=   870, Time=        174.000 fs
Ar     2.48597996     2.84576256     1.19224167
Ar     1.90083153     7.04550469     1.43797228

2
Energies (in J/mol): KE=   2.996100E-04, PE=  -6.307888E-08, TE=   2.995469E-04, Step=   880, Time=        176.000 fs
Ar     2.48598006     2.84576266     1.19224177
Ar     1.90083163     7.04550479     1.43797238

2
Energies (in J/mol): KE=   2.996100E-04, PE=  -6.307888E-08, TE=   2.995469E-04, Step=   890, Time=        178.000 fs
Ar     2.48598016     2.84576276     1.19224187
Ar     1.90083173     7.04550489     1.43797248

2
Energies (in J/mol): KE=   2.996100E-04, PE=  -6.307888E-08, TE=   2.995469E-04, Step=   900, Time=        180.000 fs
Ar     2.48598026     2.84576286     1.19224197
Ar     1.90083183     7.04550499     1.43797258

2
Energies (in J/mol): KE=   2.996100E-04, PE=  -6.307888E-08, TE=   2.995469E-04, Step=   910, Time=        182.000 fs
Ar     2.48598036     2.84576296     1.19224207
Ar     1.90083193     7.04550509     1.43797268

2
Energies (in J/mol): KE=   2.996100E-04, PE=  -6.307888E-08, TE=   2.995469E-04, Step=   920, Time=        184.000 fs
Ar     2.48598046     2.84576306     1.19224217
Ar     1.90083203     7.04550519     1.43797278

2
Energies (in J/mol): KE=   2.996100E-04, PE=  -6.307888E-08, TE=   2.995469E-04, Step=   930, Time=        186.000 fs
Ar     2.48598056     2.84576316     1.19224227
Ar     1.90083213     7.04550529     1.43797288

2
Energies (in J/mol): KE=   2.996100E-04, PE=  -6.307888E-08, TE=   2.995469E-04, Step=   940, Time=        188.000 fs
Ar     2.48598066     2.84576326     1.19224237
Ar     1.90083223     7.04550539     1.43797298

2
Energies (in J/mol): KE=   2.996100E-04, PE=  -6.307888E-08, TE=   2.995469E-04, Step=   950, Time=        190.000 fs
Ar     2.48598076     2.84576336     1.19224247
Ar     1.90083233     7.04550549     1.43797308

2
Energies (in J/mol): KE=   2.996100E-04, PE=  -6.307888E-08, TE=   2.995469E-04, Step=   960, Time=        192.000 fs
Ar     2.48598086     2.84576346     1.19224257
Ar     1.90083243     7.04550559     1.43797318

2
Energies (in J/mol): KE=   2.996100E-04, PE=  -6.307888E-08, TE=   2.995469E-04, Step=   970, Time=        194.000 fs
Ar     2.48598096     2.84576356     1.19224267
Ar     1.90083253     7.04550569     1.43797328

2
Energies (in J/mol): KE=   2.996100E-04, PE=  -6.307888E-08, TE=   2.995469E-04, Step=   980, Time=        196.000 fs
Ar     2.48598106     2.84576366     1.19224277
Ar     1.90083263     7.04550579     1.43797338

2
Energies (in J/mol): KE=   2.996100E-04, PE=  -6.307888E-08, TE=   2.995469E-04, Step=   990, Time=        198.000 fs
Ar     2.48598116     2.84576376     1.19224287
Ar     1.90083273     7.04550589     1.43797348

2
Energies (in J/mol): KE=   2.996100E-04, PE=  -6.307888E-08, TE=   2.995469E-04, Step=  1000, Time=        200.000 fs
Ar     2.48598126     2.84576386     1.19224297
Ar     1.90083283     7.04550599     1.43797358

