2
Energies (in J/mol): KE=   3.060868E-24, PE=  -6.307888E-07, TE=  -6.307888E-07, Step=    10, Time=          2.000 fs
Ar     2.48597126     2.84575386     1.19223297
Ar     1.90082283     7.04549599     1.43796358

2
Energies (in J/mol): KE=   2.281738E-23, PE=  -1.261578E-06, TE=  -1.261578E-06, Step=    20, Time=          4.000 fs
Ar     2.48597126     2.84575386     1.19223297
Ar     1.90082283     7.04549599     1.43796358

2
Energies (in J/mol): KE=   7.517014E-23, PE=  -1.892366E-06, TE=  -1.892366E-06, Step=    30, Time=          6.000 fs
Ar     2.48597126     2.84575386     1.19223297
Ar     1.90082283     7.04549599     1.43796358

2
Energies (in J/mol): KE=   1.760198E-22, PE=  -2.523155E-06, TE=  -2.523155E-06, Step=    40, Time=          8.000 fs
Ar     2.48597126     2.84575386     1.19223297
Ar     1.90082283     7.04549599     1.43796358

2
Energies (in J/mol): KE=   3.412669E-22, PE=  -3.153944E-06, TE=  -3.153944E-06, Step=    50, Time=         10.000 fs
Ar     2.48597126     2.84575386     1.19223297
Ar     1.90082283     7.04549599     1.43796358

2
Energies (in J/mol): KE=   5.868121E-22, PE=  -3.784733E-06, TE=  -3.784733E-06, Step=    60, Time=         12.000 fs
Ar     2.48597126     2.84575386     1.19223297
Ar     1.90082283     7.04549599     1.43796358

2
Energies (in J/mol): KE=   9.285560E-22, PE=  -4.415522E-06, TE=  -4.415522E-06, Step=    70, Time=         14.000 fs
Ar     2.48597126     2.84575386     1.19223297
Ar     1.90082283     7.04549599     1.43796358

2
Energies (in J/mol): KE=   1.382399E-21, PE=  -5.046310E-06, TE=  -5.046310E-06, Step=    80, Time=         16.000 fs
Ar     2.48597126     2.84575386     1.19223297
Ar     1.90082283     7.04549599     1.43796358

2
Energies (in J/mol): KE=   1.964242E-21, PE=  -5.677099E-06, TE=  -5.677099E-06, Step=    90, Time=         18.000 fs
Ar     2.48597126     2.84575386     1.19223297
Ar     1.90082283     7.04549599     1.43796358

2
Energies (in J/mol): KE=   2.689986E-21, PE=  -6.307888E-06, TE=  -6.307888E-06, Step=   100, Time=         20.000 fs
Ar     2.48597126     2.84575386     1.19223297
Ar     1.90082283     7.04549599     1.43796358

2
Energies (in J/mol): KE=   3.575531E-21, PE=  -6.938677E-06, TE=  -6.938677E-06, Step=   110, Time=         22.000 fs
Ar     2.48597126     2.84575386     1.19223297
Ar     1.90082283     7.04549599     1.43796358

2
Energies (in J/mol): KE=   4.636777E-21, PE=  -7.569466E-06, TE=  -7.569466E-06, Step=   120, Time=         24.000 fs
Ar     2.48597126     2.84575386     1.19223297
Ar     1.90082283     7.04549599     1.43796358

2
Energies (in J/mol): KE=   5.889626E-21, PE=  -8.200255E-06, TE=  -8.200255E-06, Step=   130, Time=         26.000 fs
Ar     2.48597126     2.84575386     1.19223297
Ar     1.90082283     7.04549599     1.43796358

2
Energies (in J/mol): KE=   7.349978E-21, PE=  -8.831043E-06, TE=  -8.831043E-06, Step=   140, Time=         28.000 fs
Ar     2.48597126     2.84575386     1.19223297
Ar     1.90082283     7.04549599     1.43796358

2
Energies (in J/mol): KE=   9.033734E-21, PE=  -9.461832E-06, TE=  -9.461832E-06, Step=   150, Time=         30.000 fs
Ar     2.48597126     2.84575386     1.19223297
Ar     1.90082283     7.04549599     1.43796358

2
Energies (in J/mol): KE=   1.095679E-20, PE=  -1.009262E-05, TE=  -1.009262E-05, Step=   160, Time=         32.000 fs
Ar     2.48597126     2.84575386     1.19223297
Ar     1.90082283     7.04549599     1.43796358

2
Energies (in J/mol): KE=   1.313506E-20, PE=  -1.072341E-05, TE=  -1.072341E-05, Step=   170, Time=         34.000 fs
Ar     2.48597126     2.84575386     1.19223297
Ar     1.90082283     7.04549599     1.43796358

2
Energies (in J/mol): KE=   1.558443E-20, PE=  -1.135420E-05, TE=  -1.135420E-05, Step=   180, Time=         36.000 fs
Ar     2.48597126     2.84575386     1.19223297
Ar     1.90082283     7.04549599     1.43796358

2
Energies (in J/mol): KE=   1.832080E-20, PE=  -1.198499E-05, TE=  -1.198499E-05, Step=   190, Time=         38.000 fs
Ar     2.48597126     2.84575386     1.19223297
Ar     1.90082283     7.04549599     1.43796358

2
Energies (in J/mol): KE=   2.136009E-20, PE=  -1.261578E-05, TE=  -1.261578E-05, Step=   200, Time=         40.000 fs
Ar     2.48597126     2.84575386     1.19223297
Ar     1.90082283     7.04549599     1.43796358

2
Energies (in J/mol): KE=   2.471818E-20, PE=  -1.324656E-05, TE=  -1.324656E-05, Step=   210, Time=         42.000 fs
Ar     2.48597126     2.84575386     1.19223297
Ar     1.90082283     7.04549599     1.43796358

2
Energies (in J/mol): KE=   2.841097E-20, PE=  -1.387735E-05, TE=  -1.387735E-05, Step=   220, Time=         44.000 fs
Ar     2.48597126     2.84575386     1.19223297
Ar     1.90082283     7.04549599     1.43796358

2
Energies (in J/mol): KE=   3.245438E-20, PE=  -1.450814E-05, TE=  -1.450814E-05, Step=   230, Time=         46.000 fs
Ar     2.48597126     2.84575386     1.19223297
Ar     1.90082283     7.04549599     1.43796358

2
Energies (in J/mol): KE=   3.686430E-20, PE=  -1.513893E-05, TE=  -1.513893E-05, Step=   240, Time=         48.000 fs
Ar     2.48597126     2.84575386     1.19223297
Ar     1.90082283     7.04549599     1.43796358

2
Energies (in J/mol): KE=   4.165662E-20, PE=  -1.576972E-05, TE=  -1.576972E-05, Step=   250, Time=         50.000 fs
Ar     2.48597126     2.84575386     1.19223297
Ar     1.90082283     7.04549599     1.43796358

2
Energies (in J/mol): KE=   4.684726E-20, PE=  -1.640051E-05, TE=  -1.640051E-05, Step=   260, Time=         52.000 fs
Ar     2.48597126     2.84575386     1.19223297
Ar     1.90082283     7.04549599     1.43796358

2
Energies (in J/mol): KE=   5.245210E-20, PE=  -1.703130E-05, TE=  -1.703130E-05, Step=   270, Time=         54.000 fs
Ar     2.48597126     2.84575386     1.19223297
Ar     1.90082283     7.04549599     1.43796358

2
Energies (in J/mol): KE=   5.848706E-20, PE=  -1.766209E-05, TE=  -1.766209E-05, Step=   280, Time=         56.000 fs
Ar     2.48597126     2.84575386     1.19223297
Ar     1.90082283     7.04549599     1.43796358

2
Energies (in J/mol): KE=   6.496803E-20, PE=  -1.829288E-05, TE=  -1.829288E-05, Step=   290, Time=         58.000 fs
Ar     2.48597126     2.84575386     1.19223297
Ar     1.90082283     7.04549599     1.43796358

2
Energies (in J/mol): KE=   7.191091E-20, PE=  -1.892366E-05, TE=  -1.892366E-05, Step=   300, Time=         60.000 fs
Ar     2.48597126     2.84575386     1.19223297
Ar     1.90082283     7.04549599     1.43796358

2
Energies (in J/mol): KE=   7.933161E-20, PE=  -1.955445E-05, TE=  -1.955445E-05, Step=   310, Time=         62.000 fs
Ar     2.48597126     2.84575386     1.19223297
Ar     1.90082283     7.04549599     1.43796358

2
Energies (in J/mol): KE=   8.724602E-20, PE=  -2.018524E-05, TE=  -2.018524E-05, Step=   320, Time=         64.000 fs
Ar     2.48597126     2.84575386     1.19223297
Ar     1.90082283     7.04549599     1.43796358

2
Energies (in J/mol): KE=   9.567005E-20, PE=  -2.081603E-05, TE=  -2.081603E-05, Step=   330, Time=         66.000 fs
Ar     2.48597126     2.84575386     1.19223297
Ar     1.90082283     7.04549599     1.43796358

2
Energies (in J/mol): KE=   1.046196E-19, PE=  -2.144682E-05, TE=  -2.144682E-05, Step=   340, Time=         68.000 fs
Ar     2.48597126     2.84575386     1.19223297
Ar     1.90082283     7.04549599     1.43796358

2
Energies (in J/mol): KE=   1.141105E-19, PE=  -2.207761E-05, TE=  -2.207761E-05, Step=   350, Time=         70.000 fs
Ar     2.48597126     2.84575386     1.19223297
Ar     1.90082283     7.04549599     1.43796358

2
Energies (in J/mol): KE=   1.241588E-19, PE=  -2.270840E-05, TE=  -2.270840E-05, Step=   360, Time=         72.000 fs
Ar     2.48597126     2.84575386     1.19223297
Ar     1.90082283     7.04549599     1.43796358

2
Energies (in J/mol): KE=   1.347803E-19, PE=  -2.333919E-05, TE=  -2.333919E-05, Step=   370, Time=         74.000 fs
Ar     2.48597126     2.84575386     1.19223297
Ar     1.90082283     7.04549599     1.43796358

2
Energies (in J/mol): KE=   1.459909E-19, PE=  -2.396997E-05, TE=  -2.396997E-05, Step=   380, Time=         76.000 fs
Ar     2.48597126     2.84575386     1.19223297
Ar     1.90082283     7.04549599     1.43796358

2
Energies (in J/mol): KE=   1.578065E-19, PE=  -2.460076E-05, TE=  -2.460076E-05, Step=   390, Time=         78.000 fs
Ar     2.48597126     2.84575386     1.19223297
Ar     1.90082283     7.04549599     1.43796358

2
Energies (in J/mol): KE=   1.702431E-19, PE=  -2.523155E-05, TE=  -2.523155E-05, Step=   400, Time=         80.000 fs
Ar     2.48597126     2.84575386     1.19223297
Ar     1.90082283     7.04549599     1.43796358

2
Energies (in J/mol): KE=   1.833164E-19, PE=  -2.586234E-05, TE=  -2.586234E-05, Step=   410, Time=         82.000 fs
Ar     2.48597126     2.84575386     1.19223297
Ar     1.90082283     7.04549599     1.43796358

2
Energies (in J/mol): KE=   1.970425E-19, PE=  -2.649313E-05, TE=  -2.649313E-05, Step=   420, Time=         84.000 fs
Ar     2.48597126     2.84575386     1.19223297
Ar     1.90082283     7.04549599     1.43796358

2
Energies (in J/mol): KE=   2.114372E-19, PE=  -2.712392E-05, TE=  -2.712392E-05, Step=   430, Time=         86.000 fs
Ar     2.48597126     2.84575386     1.19223297
Ar     1.90082283     7.04549599     1.43796358

2
Energies (in J/mol): KE=   2.265165E-19, PE=  -2.775471E-05, TE=  -2.775471E-05, Step=   440, Time=         88.000 fs
Ar     2.48597126     2.84575386     1.19223297
Ar     1.90082283     7.04549599     1.43796358

2
Energies (in J/mol): KE=   2.422961E-19, PE=  -2.838550E-05, TE=  -2.838550E-05, Step=   450, Time=         90.000 fs
Ar     2.48597126     2.84575386     1.19223297
Ar     1.90082283     7.04549599     1.43796358

2
Energies (in J/mol): KE=   2.587921E-19, PE=  -2.901629E-05, TE=  -2.901629E-05, Step=   460, Time=         92.000 fs
Ar     2.48597126     2.84575386     1.19223297
Ar     1.90082283     7.04549599     1.43796358

2
Energies (in J/mol): KE=   2.760203E-19, PE=  -2.964707E-05, TE=  -2.964707E-05, Step=   470, Time=         94.000 fs
Ar     2.48597126     2.84575386     1.19223297
Ar     1.90082283     7.04549599     1.43796358

2
Energies (in J/mol): KE=   2.939966E-19, PE=  -3.027786E-05, TE=  -3.027786E-05, Step=   480, Time=         96.000 fs
Ar     2.48597126     2.84575386     1.19223297
Ar     1.90082283     7.04549599     1.43796358

2
Energies (in J/mol): KE=   3.127369E-19, PE=  -3.090865E-05, TE=  -3.090865E-05, Step=   490, Time=         98.000 fs
Ar     2.48597126     2.84575386     1.19223297
Ar     1.90082283     7.04549599     1.43796358

2
Energies (in J/mol): KE=   3.322572E-19, PE=  -3.153944E-05, TE=  -3.153944E-05, Step=   500, Time=        100.000 fs
Ar     2.48597126     2.84575386     1.19223297
Ar     1.90082283     7.04549599     1.43796358

2
Energies (in J/mol): KE=   3.525733E-19, PE=  -3.217023E-05, TE=  -3.217023E-05, Step=   510, Time=        102.000 fs
Ar     2.48597126     2.84575386     1.19223297
Ar     1.90082283     7.04549599     1.43796358

2
Energies (in J/mol): KE=   3.737011E-19, PE=  -3.280102E-05, TE=  -3.280102E-05, Step=   520, Time=        104.000 fs
Ar     2.48597126     2.84575386     1.19223297
Ar     1.90082283     7.04549599     1.43796358

2
Energies (in J/mol): KE=   3.956566E-19, PE=  -3.343181E-05, TE=  -3.343181E-05, Step=   530, Time=        106.000 fs
Ar     2.48597126     2.84575386     1.19223297
Ar     1.90082283     7.04549599     1.43796358

2
Energies (in J/mol): KE=   4.184555E-19, PE=  -3.406260E-05, TE=  -3.406260E-05, Step=   540, Time=        108.000 fs
Ar     2.48597126     2.84575386     1.19223297
Ar     1.90082283     7.04549599     1.43796358

2
Energies (in J/mol): KE=   4.421139E-19, PE=  -3.469338E-05, TE=  -3.469338E-05, Step=   550, Time=        110.000 fs
Ar     2.48597126     2.84575386     1.19223297
Ar     1.90082283     7.04549599     1.43796358

2
Energies (in J/mol): KE=   4.666477E-19, PE=  -3.532417E-05, TE=  -3.532417E-05, Step=   560, Time=        112.000 fs
Ar     2.48597126     2.84575386     1.19223297
Ar     1.90082283     7.04549599     1.43796358

2
Energies (in J/mol): KE=   4.920726E-19, PE=  -3.595496E-05, TE=  -3.595496E-05, Step=   570, Time=        114.000 fs
Ar     2.48597126     2.84575386     1.19223297
Ar     1.90082283     7.04549599     1.43796358

2
Energies (in J/mol): KE=   5.184047E-19, PE=  -3.658575E-05, TE=  -3.658575E-05, Step=   580, Time=        116.000 fs
Ar     2.48597126     2.84575386     1.19223297
Ar     1.90082283     7.04549599     1.43796358

2
Energies (in J/mol): KE=   5.456598E-19, PE=  -3.721654E-05, TE=  -3.721654E-05, Step=   590, Time=        118.000 fs
Ar     2.48597126     2.84575386     1.19223297
Ar     1.90082283     7.04549599     1.43796358

2
Energies (in J/mol): KE=   5.738539E-19, PE=  -3.784733E-05, TE=  -3.784733E-05, Step=   600, Time=        120.000 fs
Ar     2.48597126     2.84575386     1.19223297
Ar     1.90082283     7.04549599     1.43796358

2
Energies (in J/mol): KE=   6.030028E-19, PE=  -3.847812E-05, TE=  -3.847812E-05, Step=   610, Time=        122.000 fs
Ar     2.48597126     2.84575386     1.19223297
Ar     1.90082283     7.04549599     1.43796358

2
Energies (in J/mol): KE=   6.331224E-19, PE=  -3.910891E-05, TE=  -3.910891E-05, Step=   620, Time=        124.000 fs
Ar     2.48597126     2.84575386     1.19223297
Ar     1.90082283     7.04549599     1.43796358

2
Energies (in J/mol): KE=   6.642286E-19, PE=  -3.973969E-05, TE=  -3.973969E-05, Step=   630, Time=        126.000 fs
Ar     2.48597126     2.84575386     1.19223297
Ar     1.90082283     7.04549599     1.43796358

2
Energies (in J/mol): KE=   6.963374E-19, PE=  -4.037048E-05, TE=  -4.037048E-05, Step=   640, Time=        128.000 fs
Ar     2.48597126     2.84575386     1.19223297
Ar     1.90082283     7.04549599     1.43796358

2
Energies (in J/mol): KE=   7.294646E-19, PE=  -4.100127E-05, TE=  -4.100127E-05, Step=   650, Time=        130.000 fs
Ar     2.48597126     2.84575386     1.19223297
Ar     1.90082283     7.04549599     1.43796358

2
Energies (in J/mol): KE=   7.636262E-19, PE=  -4.163206E-05, TE=  -4.163206E-05, Step=   660, Time=        132.000 fs
Ar     2.48597126     2.84575386     1.19223297
Ar     1.90082283     7.04549599     1.43796358

2
Energies (in J/mol): KE=   7.988379E-19, PE=  -4.226285E-05, TE=  -4.226285E-05, Step=   670, Time=        134.000 fs
Ar     2.48597126     2.84575386     1.19223297
Ar     1.90082283     7.04549599     1.43796358

2
Energies (in J/mol): KE=   8.351159E-19, PE=  -4.289364E-05, TE=  -4.289364E-05, Step=   680, Time=        136.000 fs
Ar     2.48597126     2.84575386     1.19223297
Ar     1.90082283     7.04549599     1.43796358

2
Energies (in J/mol): KE=   8.724758E-19, PE=  -4.352443E-05, TE=  -4.352443E-05, Step=   690, Time=        138.000 fs
Ar     2.48597126     2.84575386     1.19223297
Ar     1.90082283     7.04549599     1.43796358

2
Energies (in J/mol): KE=   9.109337E-19, PE=  -4.415522E-05, TE=  -4.415522E-05, Step=   700, Time=        140.000 fs
Ar     2.48597126     2.84575386     1.19223297
Ar     1.90082283     7.04549599     1.43796358

2
Energies (in J/mol): KE=   9.505055E-19, PE=  -4.478601E-05, TE=  -4.478601E-05, Step=   710, Time=        142.000 fs
Ar     2.48597126     2.84575386     1.19223297
Ar     1.90082283     7.04549599     1.43796358

2
Energies (in J/mol): KE=   9.912069E-19, PE=  -4.541679E-05, TE=  -4.541679E-05, Step=   720, Time=        144.000 fs
Ar     2.48597126     2.84575386     1.19223297
Ar     1.90082283     7.04549599     1.43796358

2
Energies (in J/mol): KE=   1.033054E-18, PE=  -4.604758E-05, TE=  -4.604758E-05, Step=   730, Time=        146.000 fs
Ar     2.48597126     2.84575386     1.19223297
Ar     1.90082283     7.04549599     1.43796358

2
Energies (in J/mol): KE=   1.076063E-18, PE=  -4.667837E-05, TE=  -4.667837E-05, Step=   740, Time=        148.000 fs
Ar     2.48597126     2.84575386     1.19223297
Ar     1.90082283     7.04549599     1.43796358

2
Energies (in J/mol): KE=   1.120249E-18, PE=  -4.730916E-05, TE=  -4.730916E-05, Step=   750, Time=        150.000 fs
Ar     2.48597126     2.84575386     1.19223297
Ar     1.90082283     7.04549599     1.43796358

2
Energies (in J/mol): KE=   1.165628E-18, PE=  -4.793995E-05, TE=  -4.793995E-05, Step=   760, Time=        152.000 fs
Ar     2.48597126     2.84575386     1.19223297
Ar     1.90082283     7.04549599     1.43796358

2
Energies (in J/mol): KE=   1.212217E-18, PE=  -4.857074E-05, TE=  -4.857074E-05, Step=   770, Time=        154.000 fs
Ar     2.48597126     2.84575386     1.19223297
Ar     1.90082283     7.04549599     1.43796358

2
Energies (in J/mol): KE=   1.260031E-18, PE=  -4.920153E-05, TE=  -4.920153E-05, Step=   780, Time=        156.000 fs
Ar     2.48597126     2.84575386     1.19223297
Ar     1.90082283     7.04549599     1.43796358

2
Energies (in J/mol): KE=   1.309086E-18, PE=  -4.983232E-05, TE=  -4.983232E-05, Step=   790, Time=        158.000 fs
Ar     2.48597126     2.84575386     1.19223297
Ar     1.90082283     7.04549599     1.43796358

2
Energies (in J/mol): KE=   1.359397E-18, PE=  -5.046310E-05, TE=  -5.046310E-05, Step=   800, Time=        160.000 fs
Ar     2.48597126     2.84575386     1.19223297
Ar     1.90082283     7.04549599     1.43796358

2
Energies (in J/mol): KE=   1.410982E-18, PE=  -5.109389E-05, TE=  -5.109389E-05, Step=   810, Time=        162.000 fs
Ar     2.48597126     2.84575386     1.19223297
Ar     1.90082283     7.04549599     1.43796358

2
Energies (in J/mol): KE=   1.463855E-18, PE=  -5.172468E-05, TE=  -5.172468E-05, Step=   820, Time=        164.000 fs
Ar     2.48597126     2.84575386     1.19223297
Ar     1.90082283     7.04549599     1.43796358

2
Energies (in J/mol): KE=   1.518033E-18, PE=  -5.235547E-05, TE=  -5.235547E-05, Step=   830, Time=        166.000 fs
Ar     2.48597126     2.84575386     1.19223297
Ar     1.90082283     7.04549599     1.43796358

2
Energies (in J/mol): KE=   1.573532E-18, PE=  -5.298626E-05, TE=  -5.298626E-05, Step=   840, Time=        168.000 fs
Ar     2.48597126     2.84575386     1.19223297
Ar     1.90082283     7.04549599     1.43796358

2
Energies (in J/mol): KE=   1.630367E-18, PE=  -5.361705E-05, TE=  -5.361705E-05, Step=   850, Time=        170.000 fs
Ar     2.48597126     2.84575386     1.19223297
Ar     1.90082283     7.04549599     1.43796358

2
Energies (in J/mol): KE=   1.688554E-18, PE=  -5.424784E-05, TE=  -5.424784E-05, Step=   860, Time=        172.000 fs
Ar     2.48597126     2.84575386     1.19223297
Ar     1.90082283     7.04549599     1.43796358

2
Energies (in J/mol): KE=   1.748110E-18, PE=  -5.487863E-05, TE=  -5.487863E-05, Step=   870, Time=        174.000 fs
Ar     2.48597126     2.84575386     1.19223297
Ar     1.90082283     7.04549599     1.43796358

2
Energies (in J/mol): KE=   1.809050E-18, PE=  -5.550942E-05, TE=  -5.550942E-05, Step=   880, Time=        176.000 fs
Ar     2.48597126     2.84575386     1.19223297
Ar     1.90082283     7.04549599     1.43796358

2
Energies (in J/mol): KE=   1.871390E-18, PE=  -5.614020E-05, TE=  -5.614020E-05, Step=   890, Time=        178.000 fs
Ar     2.48597126     2.84575386     1.19223297
Ar     1.90082283     7.04549599     1.43796358

2
Energies (in J/mol): KE=   1.935145E-18, PE=  -5.677099E-05, TE=  -5.677099E-05, Step=   900, Time=        180.000 fs
Ar     2.48597126     2.84575386     1.19223297
Ar     1.90082283     7.04549599     1.43796358

2
Energies (in J/mol): KE=   2.000333E-18, PE=  -5.740178E-05, TE=  -5.740178E-05, Step=   910, Time=        182.000 fs
Ar     2.48597126     2.84575386     1.19223297
Ar     1.90082283     7.04549599     1.43796358

2
Energies (in J/mol): KE=   2.066968E-18, PE=  -5.803257E-05, TE=  -5.803257E-05, Step=   920, Time=        184.000 fs
Ar     2.48597126     2.84575386     1.19223297
Ar     1.90082283     7.04549599     1.43796358

2
Energies (in J/mol): KE=   2.135067E-18, PE=  -5.866336E-05, TE=  -5.866336E-05, Step=   930, Time=        186.000 fs
Ar     2.48597126     2.84575386     1.19223297
Ar     1.90082283     7.04549599     1.43796358

2
Energies (in J/mol): KE=   2.204646E-18, PE=  -5.929415E-05, TE=  -5.929415E-05, Step=   940, Time=        188.000 fs
Ar     2.48597126     2.84575386     1.19223297
Ar     1.90082283     7.04549599     1.43796358

2
Energies (in J/mol): KE=   2.275720E-18, PE=  -5.992494E-05, TE=  -5.992494E-05, Step=   950, Time=        190.000 fs
Ar     2.48597126     2.84575386     1.19223297
Ar     1.90082283     7.04549599     1.43796358

2
Energies (in J/mol): KE=   2.348305E-18, PE=  -6.055573E-05, TE=  -6.055573E-05, Step=   960, Time=        192.000 fs
Ar     2.48597126     2.84575386     1.19223297
Ar     1.90082283     7.04549599     1.43796358

2
Energies (in J/mol): KE=   2.422418E-18, PE=  -6.118651E-05, TE=  -6.118651E-05, Step=   970, Time=        194.000 fs
Ar     2.48597126     2.84575386     1.19223297
Ar     1.90082283     7.04549599     1.43796358

2
Energies (in J/mol): KE=   2.498074E-18, PE=  -6.181730E-05, TE=  -6.181730E-05, Step=   980, Time=        196.000 fs
Ar     2.48597126     2.84575386     1.19223297
Ar     1.90082283     7.04549599     1.43796358

2
Energies (in J/mol): KE=   2.575289E-18, PE=  -6.244809E-05, TE=  -6.244809E-05, Step=   990, Time=        198.000 fs
Ar     2.48597126     2.84575386     1.19223297
Ar     1.90082283     7.04549599     1.43796358

2
Energies (in J/mol): KE=   2.654078E-18, PE=  -6.307888E-05, TE=  -6.307888E-05, Step=  1000, Time=        200.000 fs
Ar     2.48597126     2.84575386     1.19223297
Ar     1.90082283     7.04549599     1.43796358

